   5   5   1   0
  0.2000000E+03  0.1000000E-08  0.1000000E-08  0.1000000E-08  0.1000000E-16
  1.000000000000000E-004
  CAR 
 unknown system                          
      2.14791243    -22.24872126  301     -6.66880417      1.00000000
    -22.249  0.0000E+00  0.0000E+00  0.0000E+00  0.0000E+00
    -22.167  0.0000E+00  0.0000E+00  0.0000E+00  0.0000E+00
    -22.086  0.0000E+00  0.0000E+00  0.0000E+00  0.0000E+00
    -22.005  0.6609E-29  0.6879E-29  0.5375E-30  0.5594E-30
    -21.923  0.3244E-23  0.3363E-23  0.2638E-24  0.2735E-24
    -21.842  0.4090E-18  0.4223E-18  0.3326E-19  0.3435E-19
    -21.761  0.1311E-13  0.1348E-13  0.1066E-14  0.1096E-14
    -21.679  0.1053E-09  0.1079E-09  0.8565E-11  0.8774E-11
    -21.598  0.2060E-06  0.2101E-06  0.1676E-07  0.1710E-07
    -21.517  0.9343E-04  0.9490E-04  0.7615E-05  0.7735E-05
    -21.436  0.8736E-02  0.8830E-02  0.7181E-03  0.7258E-03
    -21.354  0.1030E+00  0.1032E+00  0.9093E-02  0.9119E-02
    -21.273 -0.7289E+00 -0.7347E+00 -0.5018E-01 -0.5063E-01
    -21.192  0.1856E+01  0.1892E+01  0.1007E+00  0.1033E+00
    -21.110  0.1820E+02  0.1822E+02  0.1581E+01  0.1585E+01
    -21.029  0.6274E+01  0.6219E+01  0.2091E+01  0.2091E+01
    -20.948 -0.1234E+01 -0.1230E+01  0.1991E+01  0.1991E+01
    -20.866  0.8968E-01  0.9033E-01  0.1998E+01  0.1998E+01
    -20.785  0.2243E-01  0.2223E-01  0.2000E+01  0.2000E+01
    -20.704  0.3909E-03  0.3853E-03  0.2000E+01  0.2000E+01
    -20.622  0.1315E-05  0.1291E-05  0.2000E+01  0.2000E+01
    -20.541  0.1003E-08  0.9807E-09  0.2000E+01  0.2000E+01
    -20.460  0.1857E-12  0.1802E-12  0.2000E+01  0.2000E+01
    -20.378  0.0000E+00  0.0000E+00  0.2000E+01  0.2000E+01
    -20.297  0.0000E+00  0.0000E+00  0.2000E+01  0.2000E+01
    -20.216  0.0000E+00  0.0000E+00  0.2000E+01  0.2000E+01
    -20.134  0.0000E+00  0.0000E+00  0.2000E+01  0.2000E+01
    -20.053  0.0000E+00  0.0000E+00  0.2000E+01  0.2000E+01
    -19.972  0.0000E+00  0.0000E+00  0.2000E+01  0.2000E+01
    -19.890  0.0000E+00  0.0000E+00  0.2000E+01  0.2000E+01
    -19.809  0.0000E+00  0.0000E+00  0.2000E+01  0.2000E+01
    -19.728  0.0000E+00  0.0000E+00  0.2000E+01  0.2000E+01
    -19.646  0.0000E+00  0.0000E+00  0.2000E+01  0.2000E+01
    -19.565  0.0000E+00  0.0000E+00  0.2000E+01  0.2000E+01
    -19.484  0.0000E+00  0.0000E+00  0.2000E+01  0.2000E+01
    -19.402  0.0000E+00  0.0000E+00  0.2000E+01  0.2000E+01
    -19.321  0.0000E+00  0.0000E+00  0.2000E+01  0.2000E+01
    -19.240  0.0000E+00  0.0000E+00  0.2000E+01  0.2000E+01
    -19.158  0.0000E+00  0.0000E+00  0.2000E+01  0.2000E+01
    -19.077  0.0000E+00  0.0000E+00  0.2000E+01  0.2000E+01
    -18.996  0.0000E+00  0.0000E+00  0.2000E+01  0.2000E+01
    -18.915  0.0000E+00  0.0000E+00  0.2000E+01  0.2000E+01
    -18.833  0.0000E+00  0.0000E+00  0.2000E+01  0.2000E+01
    -18.752  0.0000E+00  0.0000E+00  0.2000E+01  0.2000E+01
    -18.671  0.0000E+00  0.0000E+00  0.2000E+01  0.2000E+01
    -18.589  0.0000E+00  0.0000E+00  0.2000E+01  0.2000E+01
    -18.508  0.0000E+00  0.0000E+00  0.2000E+01  0.2000E+01
    -18.427  0.0000E+00  0.0000E+00  0.2000E+01  0.2000E+01
    -18.345  0.0000E+00  0.0000E+00  0.2000E+01  0.2000E+01
    -18.264  0.0000E+00  0.0000E+00  0.2000E+01  0.2000E+01
    -18.183  0.0000E+00  0.0000E+00  0.2000E+01  0.2000E+01
    -18.101  0.0000E+00  0.0000E+00  0.2000E+01  0.2000E+01
    -18.020  0.0000E+00  0.0000E+00  0.2000E+01  0.2000E+01
    -17.939  0.0000E+00  0.0000E+00  0.2000E+01  0.2000E+01
    -17.857  0.0000E+00  0.0000E+00  0.2000E+01  0.2000E+01
    -17.776  0.0000E+00  0.0000E+00  0.2000E+01  0.2000E+01
    -17.695  0.0000E+00  0.0000E+00  0.2000E+01  0.2000E+01
    -17.613  0.0000E+00  0.0000E+00  0.2000E+01  0.2000E+01
    -17.532  0.0000E+00  0.0000E+00  0.2000E+01  0.2000E+01
    -17.451  0.0000E+00  0.0000E+00  0.2000E+01  0.2000E+01
    -17.369  0.0000E+00  0.0000E+00  0.2000E+01  0.2000E+01
    -17.288  0.4582E-26  0.4741E-26  0.2000E+01  0.2000E+01
    -17.207  0.1163E-20  0.1199E-20  0.2000E+01  0.2000E+01
    -17.125  0.7541E-16  0.7748E-16  0.2000E+01  0.2000E+01
    -17.044  0.1238E-11  0.1267E-11  0.2000E+01  0.2000E+01
    -16.963  0.5018E-08  0.5118E-08  0.2000E+01  0.2000E+01
    -16.881  0.4864E-05  0.4943E-05  0.2000E+01  0.2000E+01
    -16.800  0.1048E-02  0.1060E-02  0.2000E+01  0.2000E+01
    -16.719  0.4065E-01  0.4092E-01  0.2003E+01  0.2003E+01
    -16.637 -0.1415E-02 -0.3207E-02  0.2003E+01  0.2003E+01
    -16.556 -0.1306E+01 -0.1304E+01  0.1897E+01  0.1897E+01
    -16.475  0.1036E+02  0.1042E+02  0.2740E+01  0.2744E+01
    -16.394  0.1594E+02  0.1590E+02  0.4036E+01  0.4037E+01
    -16.312 -0.1751E+00 -0.1935E+00  0.4022E+01  0.4021E+01
    -16.231 -0.3484E+00 -0.3442E+00  0.3993E+01  0.3993E+01
    -16.150  0.7929E-01  0.7894E-01  0.4000E+01  0.4000E+01
    -16.068  0.3921E-02  0.3880E-02  0.4000E+01  0.4000E+01
    -15.987  0.2969E-04  0.2925E-04  0.4000E+01  0.4000E+01
    -15.906  0.4801E-07  0.4712E-07  0.4000E+01  0.4000E+01
    -15.824  0.1825E-10  0.1785E-10  0.4000E+01  0.4000E+01
    -15.743  0.2730E-14  0.2730E-14  0.4000E+01  0.4000E+01
    -15.662  0.0000E+00  0.0000E+00  0.4000E+01  0.4000E+01
    -15.580  0.0000E+00  0.0000E+00  0.4000E+01  0.4000E+01
    -15.499  0.0000E+00  0.0000E+00  0.4000E+01  0.4000E+01
    -15.418  0.0000E+00  0.0000E+00  0.4000E+01  0.4000E+01
    -15.336  0.0000E+00  0.0000E+00  0.4000E+01  0.4000E+01
    -15.255  0.0000E+00  0.0000E+00  0.4000E+01  0.4000E+01
    -15.174  0.0000E+00  0.0000E+00  0.4000E+01  0.4000E+01
    -15.092  0.0000E+00  0.0000E+00  0.4000E+01  0.4000E+01
    -15.011  0.0000E+00  0.0000E+00  0.4000E+01  0.4000E+01
    -14.930  0.0000E+00  0.0000E+00  0.4000E+01  0.4000E+01
    -14.848  0.0000E+00  0.0000E+00  0.4000E+01  0.4000E+01
    -14.767  0.0000E+00  0.0000E+00  0.4000E+01  0.4000E+01
    -14.686  0.0000E+00  0.0000E+00  0.4000E+01  0.4000E+01
    -14.604  0.0000E+00  0.0000E+00  0.4000E+01  0.4000E+01
    -14.523  0.0000E+00  0.0000E+00  0.4000E+01  0.4000E+01
    -14.442  0.0000E+00  0.0000E+00  0.4000E+01  0.4000E+01
    -14.360  0.0000E+00  0.0000E+00  0.4000E+01  0.4000E+01
    -14.279  0.0000E+00  0.0000E+00  0.4000E+01  0.4000E+01
    -14.198  0.0000E+00  0.0000E+00  0.4000E+01  0.4000E+01
    -14.117  0.0000E+00  0.0000E+00  0.4000E+01  0.4000E+01
    -14.035  0.0000E+00  0.0000E+00  0.4000E+01  0.4000E+01
    -13.954  0.0000E+00  0.0000E+00  0.4000E+01  0.4000E+01
    -13.873  0.0000E+00  0.0000E+00  0.4000E+01  0.4000E+01
    -13.791  0.0000E+00  0.0000E+00  0.4000E+01  0.4000E+01
    -13.710  0.0000E+00  0.0000E+00  0.4000E+01  0.4000E+01
    -13.629  0.0000E+00  0.0000E+00  0.4000E+01  0.4000E+01
    -13.547  0.0000E+00  0.0000E+00  0.4000E+01  0.4000E+01
    -13.466  0.0000E+00  0.0000E+00  0.4000E+01  0.4000E+01
    -13.385  0.0000E+00  0.0000E+00  0.4000E+01  0.4000E+01
    -13.303  0.0000E+00  0.0000E+00  0.4000E+01  0.4000E+01
    -13.222  0.0000E+00  0.0000E+00  0.4000E+01  0.4000E+01
    -13.141  0.0000E+00  0.0000E+00  0.4000E+01  0.4000E+01
    -13.059  0.0000E+00  0.0000E+00  0.4000E+01  0.4000E+01
    -12.978  0.0000E+00  0.0000E+00  0.4000E+01  0.4000E+01
    -12.897  0.0000E+00  0.0000E+00  0.4000E+01  0.4000E+01
    -12.815  0.0000E+00  0.0000E+00  0.4000E+01  0.4000E+01
    -12.734  0.0000E+00  0.0000E+00  0.4000E+01  0.4000E+01
    -12.653  0.0000E+00  0.0000E+00  0.4000E+01  0.4000E+01
    -12.571  0.0000E+00  0.0000E+00  0.4000E+01  0.4000E+01
    -12.490  0.0000E+00  0.0000E+00  0.4000E+01  0.4000E+01
    -12.409  0.0000E+00  0.0000E+00  0.4000E+01  0.4000E+01
    -12.327  0.0000E+00  0.0000E+00  0.4000E+01  0.4000E+01
    -12.246  0.0000E+00  0.0000E+00  0.4000E+01  0.4000E+01
    -12.165  0.0000E+00  0.0000E+00  0.4000E+01  0.4000E+01
    -12.083  0.0000E+00  0.0000E+00  0.4000E+01  0.4000E+01
    -12.002  0.0000E+00  0.0000E+00  0.4000E+01  0.4000E+01
    -11.921  0.0000E+00  0.0000E+00  0.4000E+01  0.4000E+01
    -11.839  0.0000E+00  0.0000E+00  0.4000E+01  0.4000E+01
    -11.758  0.0000E+00  0.0000E+00  0.4000E+01  0.4000E+01
    -11.677  0.0000E+00  0.0000E+00  0.4000E+01  0.4000E+01
    -11.596  0.0000E+00  0.0000E+00  0.4000E+01  0.4000E+01
    -11.514  0.6281E-27  0.1729E-27  0.4000E+01  0.4000E+01
    -11.433  0.1958E-21  0.6225E-22  0.4000E+01  0.4000E+01
    -11.352  0.1565E-16  0.5773E-17  0.4000E+01  0.4000E+01
    -11.270  0.3174E-12  0.1366E-12  0.4000E+01  0.4000E+01
    -11.189  0.1612E-08  0.8148E-09  0.4000E+01  0.4000E+01
    -11.108  0.1987E-05  0.1189E-05  0.4000E+01  0.4000E+01
    -11.026  0.5646E-03  0.4035E-03  0.4000E+01  0.4000E+01
    -10.945  0.3219E-01  0.2788E-01  0.4003E+01  0.4002E+01
    -10.864  0.1641E+00  0.1991E+00  0.4016E+01  0.4018E+01
    -10.782 -0.1789E+01 -0.1867E+01  0.3870E+01  0.3867E+01
    -10.701  0.7886E+01  0.7148E+01  0.4512E+01  0.4448E+01
    -10.620  0.3482E+02  0.3651E+02  0.7344E+01  0.7417E+01
    -10.538  0.9835E+01  0.9015E+01  0.8143E+01  0.8150E+01
    -10.457 -0.1948E+01 -0.2068E+01  0.7985E+01  0.7982E+01
    -10.376  0.1552E+00  0.2006E+00  0.7998E+01  0.7998E+01
    -10.294  0.1445E+00  0.1390E+00  0.8009E+01  0.8009E+01
    -10.213 -0.7924E+00 -0.7921E+00  0.7945E+01  0.7945E+01
    -10.132  0.2271E+01  0.2268E+01  0.8130E+01  0.8129E+01
    -10.050  0.1839E+02  0.1839E+02  0.9625E+01  0.9625E+01
     -9.969  0.5683E+01  0.5688E+01  0.1009E+02  0.1009E+02
     -9.888 -0.1189E+01 -0.1189E+01  0.9991E+01  0.9991E+01
     -9.806  0.9608E-01  0.9604E-01  0.9998E+01  0.9998E+01
     -9.725  0.2029E-01  0.2031E-01  0.1000E+02  0.1000E+02
     -9.644  0.3336E-03  0.3340E-03  0.1000E+02  0.1000E+02
     -9.562  0.1068E-05  0.1070E-05  0.1000E+02  0.1000E+02
     -9.481  0.7783E-09  0.7799E-09  0.1000E+02  0.1000E+02
     -9.400  0.1365E-12  0.1365E-12  0.1000E+02  0.1000E+02
     -9.319  0.0000E+00  0.0000E+00  0.1000E+02  0.1000E+02
     -9.237  0.0000E+00  0.0000E+00  0.1000E+02  0.1000E+02
     -9.156  0.0000E+00  0.0000E+00  0.1000E+02  0.1000E+02
     -9.075  0.0000E+00  0.0000E+00  0.1000E+02  0.1000E+02
     -8.993  0.0000E+00  0.0000E+00  0.1000E+02  0.1000E+02
     -8.912  0.0000E+00  0.0000E+00  0.1000E+02  0.1000E+02
     -8.831  0.0000E+00  0.0000E+00  0.1000E+02  0.1000E+02
     -8.749  0.0000E+00  0.0000E+00  0.1000E+02  0.1000E+02
     -8.668  0.0000E+00  0.0000E+00  0.1000E+02  0.1000E+02
     -8.587  0.0000E+00  0.0000E+00  0.1000E+02  0.1000E+02
     -8.505  0.0000E+00  0.0000E+00  0.1000E+02  0.1000E+02
     -8.424  0.0000E+00  0.0000E+00  0.1000E+02  0.1000E+02
     -8.343  0.0000E+00  0.0000E+00  0.1000E+02  0.1000E+02
     -8.261  0.0000E+00  0.0000E+00  0.1000E+02  0.1000E+02
     -8.180  0.0000E+00  0.0000E+00  0.1000E+02  0.1000E+02
     -8.099  0.0000E+00  0.0000E+00  0.1000E+02  0.1000E+02
     -8.017  0.0000E+00  0.0000E+00  0.1000E+02  0.1000E+02
     -7.936  0.0000E+00  0.0000E+00  0.1000E+02  0.1000E+02
     -7.855  0.0000E+00  0.0000E+00  0.1000E+02  0.1000E+02
     -7.773  0.0000E+00  0.0000E+00  0.1000E+02  0.1000E+02
     -7.692  0.0000E+00  0.4758E-30  0.1000E+02  0.1000E+02
     -7.611  0.2681E-26  0.3017E-24  0.1000E+02  0.1000E+02
     -7.529  0.7265E-21  0.4923E-19  0.1000E+02  0.1000E+02
     -7.448  0.5059E-16  0.2046E-14  0.1000E+02  0.1000E+02
     -7.367  0.8972E-12  0.2140E-10  0.1000E+02  0.1000E+02
     -7.285  0.3980E-08  0.5484E-07  0.1000E+02  0.1000E+02
     -7.204  0.4294E-05  0.3302E-04  0.1000E+02  0.1000E+02
     -7.123  0.1061E-02  0.4254E-02  0.1000E+02  0.1000E+02
     -7.041  0.5082E-01  0.8554E-01  0.1000E+02  0.1001E+02
     -6.960  0.1317E+00 -0.3004E+00  0.1001E+02  0.9983E+01
     -6.879 -0.2343E+01 -0.3725E+00  0.9824E+01  0.9953E+01
     -6.798  0.1343E+02  0.1596E+02  0.1092E+02  0.1125E+02
     -6.716  0.3519E+02  0.2578E+02  0.1378E+02  0.1335E+02
     -6.635  0.3924E+01  0.9242E+01  0.1410E+02  0.1410E+02
     -6.554 -0.1414E+01 -0.1286E+01  0.1398E+02  0.1399E+02
     -6.472  0.1918E+00  0.3045E-01  0.1400E+02  0.1400E+02
     -6.391  0.1871E-01  0.4266E-01  0.1400E+02  0.1400E+02
     -6.310  0.2275E-03  0.1100E-02  0.1400E+02  0.1400E+02
     -6.228  0.5777E-06  0.5170E-05  0.1400E+02  0.1400E+02
     -6.147  0.3444E-09  0.5407E-08  0.1400E+02  0.1400E+02
     -6.066  0.5188E-13  0.1352E-11  0.1400E+02  0.1400E+02
     -5.984  0.0000E+00  0.0000E+00  0.1400E+02  0.1400E+02
     -5.903  0.0000E+00  0.0000E+00  0.1400E+02  0.1400E+02
     -5.822  0.0000E+00  0.0000E+00  0.1400E+02  0.1400E+02
     -5.740  0.0000E+00  0.0000E+00  0.1400E+02  0.1400E+02
     -5.659  0.0000E+00  0.0000E+00  0.1400E+02  0.1400E+02
     -5.578  0.0000E+00  0.0000E+00  0.1400E+02  0.1400E+02
     -5.496  0.0000E+00  0.0000E+00  0.1400E+02  0.1400E+02
     -5.415  0.0000E+00  0.0000E+00  0.1400E+02  0.1400E+02
     -5.334  0.0000E+00  0.0000E+00  0.1400E+02  0.1400E+02
     -5.252  0.0000E+00  0.0000E+00  0.1400E+02  0.1400E+02
     -5.171  0.0000E+00  0.0000E+00  0.1400E+02  0.1400E+02
     -5.090  0.0000E+00  0.0000E+00  0.1400E+02  0.1400E+02
     -5.008  0.0000E+00  0.0000E+00  0.1400E+02  0.1400E+02
     -4.927  0.0000E+00  0.0000E+00  0.1400E+02  0.1400E+02
     -4.846  0.0000E+00  0.0000E+00  0.1400E+02  0.1400E+02
     -4.764  0.0000E+00  0.0000E+00  0.1400E+02  0.1400E+02
     -4.683  0.0000E+00  0.0000E+00  0.1400E+02  0.1400E+02
     -4.602  0.0000E+00  0.0000E+00  0.1400E+02  0.1400E+02
     -4.521  0.0000E+00  0.0000E+00  0.1400E+02  0.1400E+02
     -4.439  0.0000E+00  0.0000E+00  0.1400E+02  0.1400E+02
     -4.358  0.0000E+00  0.0000E+00  0.1400E+02  0.1400E+02
     -4.277  0.0000E+00  0.0000E+00  0.1400E+02  0.1400E+02
     -4.195  0.0000E+00  0.0000E+00  0.1400E+02  0.1400E+02
     -4.114  0.0000E+00  0.0000E+00  0.1400E+02  0.1400E+02
     -4.033  0.0000E+00  0.0000E+00  0.1400E+02  0.1400E+02
     -3.951  0.0000E+00  0.0000E+00  0.1400E+02  0.1400E+02
     -3.870  0.0000E+00  0.0000E+00  0.1400E+02  0.1400E+02
     -3.789  0.0000E+00  0.0000E+00  0.1400E+02  0.1400E+02
     -3.707  0.0000E+00  0.0000E+00  0.1400E+02  0.1400E+02
     -3.626  0.0000E+00  0.0000E+00  0.1400E+02  0.1400E+02
     -3.545  0.0000E+00  0.0000E+00  0.1400E+02  0.1400E+02
     -3.463  0.0000E+00  0.0000E+00  0.1400E+02  0.1400E+02
     -3.382  0.0000E+00  0.0000E+00  0.1400E+02  0.1400E+02
     -3.301  0.0000E+00  0.0000E+00  0.1400E+02  0.1400E+02
     -3.219  0.0000E+00  0.0000E+00  0.1400E+02  0.1400E+02
     -3.138  0.0000E+00  0.0000E+00  0.1400E+02  0.1400E+02
     -3.057  0.0000E+00  0.0000E+00  0.1400E+02  0.1400E+02
     -2.975  0.0000E+00  0.0000E+00  0.1400E+02  0.1400E+02
     -2.894  0.0000E+00  0.0000E+00  0.1400E+02  0.1400E+02
     -2.813  0.0000E+00  0.0000E+00  0.1400E+02  0.1400E+02
     -2.731  0.0000E+00  0.0000E+00  0.1400E+02  0.1400E+02
     -2.650  0.0000E+00  0.0000E+00  0.1400E+02  0.1400E+02
     -2.569  0.0000E+00  0.0000E+00  0.1400E+02  0.1400E+02
     -2.487  0.0000E+00  0.0000E+00  0.1400E+02  0.1400E+02
     -2.406  0.0000E+00  0.0000E+00  0.1400E+02  0.1400E+02
     -2.325  0.0000E+00  0.0000E+00  0.1400E+02  0.1400E+02
     -2.243  0.0000E+00  0.0000E+00  0.1400E+02  0.1400E+02
     -2.162  0.0000E+00  0.0000E+00  0.1400E+02  0.1400E+02
     -2.081  0.0000E+00  0.0000E+00  0.1400E+02  0.1400E+02
     -2.000  0.0000E+00  0.0000E+00  0.1400E+02  0.1400E+02
     -1.918  0.0000E+00  0.0000E+00  0.1400E+02  0.1400E+02
     -1.837  0.0000E+00  0.0000E+00  0.1400E+02  0.1400E+02
     -1.756  0.0000E+00  0.0000E+00  0.1400E+02  0.1400E+02
     -1.674  0.0000E+00  0.0000E+00  0.1400E+02  0.1400E+02
     -1.593  0.0000E+00  0.0000E+00  0.1400E+02  0.1400E+02
     -1.512  0.0000E+00  0.0000E+00  0.1400E+02  0.1400E+02
     -1.430  0.0000E+00  0.0000E+00  0.1400E+02  0.1400E+02
     -1.349  0.2717E-25  0.3263E-25  0.1400E+02  0.1400E+02
     -1.268  0.5726E-20  0.6745E-20  0.1400E+02  0.1400E+02
     -1.186  0.3080E-15  0.3559E-15  0.1400E+02  0.1400E+02
     -1.105  0.4181E-11  0.4737E-11  0.1400E+02  0.1400E+02
     -1.024  0.1398E-07  0.1553E-07  0.1400E+02  0.1400E+02
     -0.942  0.1110E-04  0.1207E-04  0.1400E+02  0.1400E+02
     -0.861  0.1927E-02  0.2049E-02  0.1400E+02  0.1400E+02
     -0.780  0.5668E-01  0.5849E-01  0.1400E+02  0.1400E+02
     -0.698 -0.1214E+00 -0.1370E+00  0.1399E+02  0.1399E+02
     -0.617 -0.1035E+01 -0.9869E+00  0.1391E+02  0.1391E+02
     -0.536  0.1305E+02  0.1331E+02  0.1497E+02  0.1500E+02
     -0.454  0.1366E+02  0.1340E+02  0.1608E+02  0.1609E+02
     -0.373 -0.8667E+00 -0.9157E+00  0.1601E+02  0.1601E+02
     -0.292 -0.2363E+00 -0.2534E+00  0.1599E+02  0.1599E+02
     -0.210 -0.1094E+01 -0.1005E+01  0.1590E+02  0.1591E+02
     -0.129  0.1223E+02  0.1287E+02  0.1690E+02  0.1696E+02
     -0.048  0.1442E+02  0.1383E+02  0.1807E+02  0.1808E+02
      0.034 -0.7312E+00 -0.8805E+00  0.1801E+02  0.1801E+02
      0.115 -0.2119E+00 -0.1697E+00  0.1799E+02  0.1799E+02
      0.196  0.6659E-01  0.6214E-01  0.1800E+02  0.1800E+02
      0.278  0.2662E-02  0.2310E-02  0.1800E+02  0.1800E+02
      0.359  0.1731E-04  0.1424E-04  0.1800E+02  0.1800E+02
      0.440  0.2643E-07  0.1929E-07  0.1800E+02  0.1800E+02
      0.521  0.2370E-05  0.3813E-06  0.1800E+02  0.1800E+02
      0.603  0.6212E-03  0.1672E-03  0.1800E+02  0.1800E+02
      0.684  0.3191E-01  0.1581E-01  0.1800E+02  0.1800E+02
      0.765  0.1419E+00  0.2195E+00  0.1801E+02  0.1802E+02
      0.847 -0.1365E+01 -0.1166E+01  0.1790E+02  0.1792E+02
      0.928  0.5809E+01  0.1206E+01  0.1838E+02  0.1802E+02
      1.009  0.3693E+02  0.4359E+02  0.2138E+02  0.2157E+02
      1.091  0.3247E+02  0.3230E+02  0.2402E+02  0.2419E+02
      1.172  0.3747E+00 -0.2193E+01  0.2405E+02  0.2402E+02
      1.253 -0.7842E+00 -0.3447E+00  0.2399E+02  0.2399E+02
      1.335  0.1687E+00  0.1463E+00  0.2400E+02  0.2400E+02
      1.416  0.1099E-01  0.6220E-02  0.2400E+02  0.2400E+02
      1.497  0.1075E-03  0.4592E-04  0.2400E+02  0.2400E+02
      1.579  0.2264E-06  0.7564E-07  0.2400E+02  0.2400E+02
      1.660  0.1129E-09  0.2994E-10  0.2400E+02  0.2400E+02
      1.741  0.1365E-13  0.2730E-14  0.2400E+02  0.2400E+02
      1.823  0.0000E+00  0.0000E+00  0.2400E+02  0.2400E+02
      1.904  0.0000E+00  0.0000E+00  0.2400E+02  0.2400E+02
      1.985  0.0000E+00  0.0000E+00  0.2400E+02  0.2400E+02
      2.067  0.0000E+00  0.0000E+00  0.2400E+02  0.2400E+02
      2.148  0.0000E+00  0.0000E+00  0.2400E+02  0.2400E+02
      2.14791243    -22.24872126  301     -6.66880417      1.00000000
    -22.249  0.0000E+00  0.0000E+00  0.0000E+00  0.0000E+00  0.0000E+00  0.0000E+00  0.0000E+00  0.0000E+00  0.0000E+00  0.0000E+00  0.0000E+00  0.0000E+00  0.0000E+00  0.0000E+00  0.0000E+00  0.0000E+00  0.0000E+00  0.0000E+00
    -22.167  0.0000E+00  0.0000E+00  0.0000E+00  0.0000E+00  0.0000E+00  0.0000E+00  0.0000E+00  0.0000E+00  0.0000E+00  0.0000E+00  0.0000E+00  0.0000E+00  0.0000E+00  0.0000E+00  0.0000E+00  0.0000E+00  0.0000E+00  0.0000E+00
    -22.086  0.0000E+00  0.0000E+00  0.0000E+00  0.0000E+00  0.0000E+00  0.0000E+00  0.0000E+00  0.0000E+00  0.0000E+00  0.0000E+00  0.0000E+00  0.0000E+00  0.0000E+00  0.0000E+00  0.0000E+00  0.0000E+00  0.0000E+00  0.0000E+00
    -22.005  0.8477E-30  0.8823E-30  0.2400E-36  0.3314E-36  0.1483E-35  0.1976E-35  0.9975E-31  0.1038E-30  0.0000E+00  0.0000E+00  0.0000E+00  0.0000E+00  0.0000E+00  0.0000E+00  0.0000E+00  0.0000E+00  0.0000E+00  0.0000E+00
    -21.923  0.4161E-24  0.4314E-24  0.1178E-30  0.1620E-30  0.7277E-30  0.9662E-30  0.4896E-25  0.5076E-25  0.0000E+00  0.0000E+00  0.0000E+00  0.0000E+00  0.0000E+00  0.0000E+00  0.0000E+00  0.0000E+00  0.0000E+00  0.0000E+00
    -21.842  0.5246E-19  0.5417E-19  0.1485E-25  0.2035E-25  0.9175E-25  0.1213E-24  0.6173E-20  0.6374E-20  0.0000E+00  0.0000E+00  0.0000E+00  0.0000E+00  0.0000E+00  0.0000E+00  0.0000E+00  0.0000E+00  0.0000E+00  0.0000E+00
    -21.761  0.1681E-14  0.1729E-14  0.4759E-21  0.6494E-21  0.2940E-20  0.3872E-20  0.1978E-15  0.2034E-15  0.0000E+00  0.0000E+00  0.0000E+00  0.0000E+00  0.0000E+00  0.0000E+00  0.0000E+00  0.0000E+00  0.0000E+00  0.0000E+00
    -21.679  0.1351E-10  0.1384E-10  0.3824E-17  0.5197E-17  0.2362E-16  0.3099E-16  0.1589E-11  0.1628E-11  0.0000E+00  0.0000E+00  0.0000E+00  0.0000E+00  0.0000E+00  0.0000E+00  0.0000E+00  0.0000E+00  0.0000E+00  0.0000E+00
    -21.598  0.2642E-07  0.2695E-07  0.7480E-14  0.1012E-13  0.4620E-13  0.6036E-13  0.3109E-08  0.3171E-08  0.0000E+00  0.0000E+00  0.0000E+00  0.0000E+00  0.0000E+00  0.0000E+00  0.0000E+00  0.0000E+00  0.0000E+00  0.0000E+00
    -21.517  0.1198E-04  0.1217E-04  0.3393E-11  0.4572E-11  0.2096E-10  0.2726E-10  0.1410E-05  0.1432E-05  0.0000E+00  0.0000E+00  0.0000E+00  0.0000E+00  0.0000E+00  0.0000E+00  0.0000E+00  0.0000E+00  0.0000E+00  0.0000E+00
    -21.436  0.1121E-02  0.1132E-02  0.3173E-09  0.4254E-09  0.1960E-08  0.2537E-08  0.1319E-03  0.1333E-03  0.0000E+00  0.0000E+00  0.0000E+00  0.0000E+00  0.0000E+00  0.0000E+00  0.0000E+00  0.0000E+00  0.0000E+00  0.0000E+00
    -21.354  0.1321E-01  0.1324E-01  0.3740E-08  0.4972E-08  0.2310E-07  0.2965E-07  0.1554E-02  0.1558E-02  0.0000E+00  0.0000E+00  0.0000E+00  0.0000E+00  0.0000E+00  0.0000E+00  0.0000E+00  0.0000E+00  0.0000E+00  0.0000E+00
    -21.273 -0.9349E-01 -0.9423E-01 -0.2647E-07 -0.3539E-07 -0.1635E-06 -0.2111E-06 -0.1100E-01 -0.1109E-01  0.0000E+00  0.0000E+00  0.0000E+00  0.0000E+00  0.0000E+00  0.0000E+00  0.0000E+00  0.0000E+00  0.0000E+00  0.0000E+00
    -21.192  0.2380E+00  0.2427E+00  0.6740E-07  0.9116E-07  0.4163E-06  0.5436E-06  0.2801E-01  0.2856E-01  0.0000E+00  0.0000E+00  0.0000E+00  0.0000E+00  0.0000E+00  0.0000E+00  0.0000E+00  0.0000E+00  0.0000E+00  0.0000E+00
    -21.110  0.2335E+01  0.2337E+01  0.6610E-06  0.8778E-06  0.4083E-05  0.5235E-05  0.2747E+00  0.2750E+00  0.0000E+00  0.0000E+00  0.0000E+00  0.0000E+00  0.0000E+00  0.0000E+00  0.0000E+00  0.0000E+00  0.0000E+00  0.0000E+00
    -21.029  0.8047E+00  0.7977E+00  0.2278E-06  0.2996E-06  0.1407E-05  0.1787E-05  0.9469E-01  0.9387E-01  0.0000E+00  0.0000E+00  0.0000E+00  0.0000E+00  0.0000E+00  0.0000E+00  0.0000E+00  0.0000E+00  0.0000E+00  0.0000E+00
    -20.948 -0.1582E+00 -0.1577E+00 -0.4480E-07 -0.5924E-07 -0.2767E-06 -0.3533E-06 -0.1862E-01 -0.1856E-01  0.0000E+00  0.0000E+00  0.0000E+00  0.0000E+00  0.0000E+00  0.0000E+00  0.0000E+00  0.0000E+00  0.0000E+00  0.0000E+00
    -20.866  0.1150E-01  0.1158E-01  0.3257E-08  0.4351E-08  0.2012E-07  0.2595E-07  0.1353E-02  0.1363E-02  0.0000E+00  0.0000E+00  0.0000E+00  0.0000E+00  0.0000E+00  0.0000E+00  0.0000E+00  0.0000E+00  0.0000E+00  0.0000E+00
    -20.785  0.2878E-02  0.2852E-02  0.8147E-09  0.1071E-08  0.5033E-08  0.6387E-08  0.3386E-03  0.3356E-03  0.0000E+00  0.0000E+00  0.0000E+00  0.0000E+00  0.0000E+00  0.0000E+00  0.0000E+00  0.0000E+00  0.0000E+00  0.0000E+00
    -20.704  0.5014E-04  0.4942E-04  0.1420E-10  0.1856E-10  0.8769E-10  0.1107E-09  0.5900E-05  0.5816E-05  0.0000E+00  0.0000E+00  0.0000E+00  0.0000E+00  0.0000E+00  0.0000E+00  0.0000E+00  0.0000E+00  0.0000E+00  0.0000E+00
    -20.622  0.1687E-06  0.1655E-06  0.4775E-13  0.6217E-13  0.2950E-12  0.3707E-12  0.1985E-07  0.1948E-07  0.0000E+00  0.0000E+00  0.0000E+00  0.0000E+00  0.0000E+00  0.0000E+00  0.0000E+00  0.0000E+00  0.0000E+00  0.0000E+00
    -20.541  0.1287E-09  0.1258E-09  0.3644E-16  0.4724E-16  0.2251E-15  0.2817E-15  0.1514E-10  0.1480E-10  0.0000E+00  0.0000E+00  0.0000E+00  0.0000E+00  0.0000E+00  0.0000E+00  0.0000E+00  0.0000E+00  0.0000E+00  0.0000E+00
    -20.460  0.2382E-13  0.2311E-13  0.6743E-20  0.8681E-20  0.4165E-19  0.5177E-19  0.2802E-14  0.2720E-14  0.0000E+00  0.0000E+00  0.0000E+00  0.0000E+00  0.0000E+00  0.0000E+00  0.0000E+00  0.0000E+00  0.0000E+00  0.0000E+00
    -20.378  0.0000E+00  0.0000E+00  0.0000E+00  0.0000E+00  0.0000E+00  0.0000E+00  0.0000E+00  0.0000E+00  0.0000E+00  0.0000E+00  0.0000E+00  0.0000E+00  0.0000E+00  0.0000E+00  0.0000E+00  0.0000E+00  0.0000E+00  0.0000E+00
    -20.297  0.0000E+00  0.0000E+00  0.0000E+00  0.0000E+00  0.0000E+00  0.0000E+00  0.0000E+00  0.0000E+00  0.0000E+00  0.0000E+00  0.0000E+00  0.0000E+00  0.0000E+00  0.0000E+00  0.0000E+00  0.0000E+00  0.0000E+00  0.0000E+00
    -20.216  0.0000E+00  0.0000E+00  0.0000E+00  0.0000E+00  0.0000E+00  0.0000E+00  0.0000E+00  0.0000E+00  0.0000E+00  0.0000E+00  0.0000E+00  0.0000E+00  0.0000E+00  0.0000E+00  0.0000E+00  0.0000E+00  0.0000E+00  0.0000E+00
    -20.134  0.0000E+00  0.0000E+00  0.0000E+00  0.0000E+00  0.0000E+00  0.0000E+00  0.0000E+00  0.0000E+00  0.0000E+00  0.0000E+00  0.0000E+00  0.0000E+00  0.0000E+00  0.0000E+00  0.0000E+00  0.0000E+00  0.0000E+00  0.0000E+00
    -20.053  0.0000E+00  0.0000E+00  0.0000E+00  0.0000E+00  0.0000E+00  0.0000E+00  0.0000E+00  0.0000E+00  0.0000E+00  0.0000E+00  0.0000E+00  0.0000E+00  0.0000E+00  0.0000E+00  0.0000E+00  0.0000E+00  0.0000E+00  0.0000E+00
    -19.972  0.0000E+00  0.0000E+00  0.0000E+00  0.0000E+00  0.0000E+00  0.0000E+00  0.0000E+00  0.0000E+00  0.0000E+00  0.0000E+00  0.0000E+00  0.0000E+00  0.0000E+00  0.0000E+00  0.0000E+00  0.0000E+00  0.0000E+00  0.0000E+00
    -19.890  0.0000E+00  0.0000E+00  0.0000E+00  0.0000E+00  0.0000E+00  0.0000E+00  0.0000E+00  0.0000E+00  0.0000E+00  0.0000E+00  0.0000E+00  0.0000E+00  0.0000E+00  0.0000E+00  0.0000E+00  0.0000E+00  0.0000E+00  0.0000E+00
    -19.809  0.0000E+00  0.0000E+00  0.0000E+00  0.0000E+00  0.0000E+00  0.0000E+00  0.0000E+00  0.0000E+00  0.0000E+00  0.0000E+00  0.0000E+00  0.0000E+00  0.0000E+00  0.0000E+00  0.0000E+00  0.0000E+00  0.0000E+00  0.0000E+00
    -19.728  0.0000E+00  0.0000E+00  0.0000E+00  0.0000E+00  0.0000E+00  0.0000E+00  0.0000E+00  0.0000E+00  0.0000E+00  0.0000E+00  0.0000E+00  0.0000E+00  0.0000E+00  0.0000E+00  0.0000E+00  0.0000E+00  0.0000E+00  0.0000E+00
    -19.646  0.0000E+00  0.0000E+00  0.0000E+00  0.0000E+00  0.0000E+00  0.0000E+00  0.0000E+00  0.0000E+00  0.0000E+00  0.0000E+00  0.0000E+00  0.0000E+00  0.0000E+00  0.0000E+00  0.0000E+00  0.0000E+00  0.0000E+00  0.0000E+00
    -19.565  0.0000E+00  0.0000E+00  0.0000E+00  0.0000E+00  0.0000E+00  0.0000E+00  0.0000E+00  0.0000E+00  0.0000E+00  0.0000E+00  0.0000E+00  0.0000E+00  0.0000E+00  0.0000E+00  0.0000E+00  0.0000E+00  0.0000E+00  0.0000E+00
    -19.484  0.0000E+00  0.0000E+00  0.0000E+00  0.0000E+00  0.0000E+00  0.0000E+00  0.0000E+00  0.0000E+00  0.0000E+00  0.0000E+00  0.0000E+00  0.0000E+00  0.0000E+00  0.0000E+00  0.0000E+00  0.0000E+00  0.0000E+00  0.0000E+00
    -19.402  0.0000E+00  0.0000E+00  0.0000E+00  0.0000E+00  0.0000E+00  0.0000E+00  0.0000E+00  0.0000E+00  0.0000E+00  0.0000E+00  0.0000E+00  0.0000E+00  0.0000E+00  0.0000E+00  0.0000E+00  0.0000E+00  0.0000E+00  0.0000E+00
    -19.321  0.0000E+00  0.0000E+00  0.0000E+00  0.0000E+00  0.0000E+00  0.0000E+00  0.0000E+00  0.0000E+00  0.0000E+00  0.0000E+00  0.0000E+00  0.0000E+00  0.0000E+00  0.0000E+00  0.0000E+00  0.0000E+00  0.0000E+00  0.0000E+00
    -19.240  0.0000E+00  0.0000E+00  0.0000E+00  0.0000E+00  0.0000E+00  0.0000E+00  0.0000E+00  0.0000E+00  0.0000E+00  0.0000E+00  0.0000E+00  0.0000E+00  0.0000E+00  0.0000E+00  0.0000E+00  0.0000E+00  0.0000E+00  0.0000E+00
    -19.158  0.0000E+00  0.0000E+00  0.0000E+00  0.0000E+00  0.0000E+00  0.0000E+00  0.0000E+00  0.0000E+00  0.0000E+00  0.0000E+00  0.0000E+00  0.0000E+00  0.0000E+00  0.0000E+00  0.0000E+00  0.0000E+00  0.0000E+00  0.0000E+00
    -19.077  0.0000E+00  0.0000E+00  0.0000E+00  0.0000E+00  0.0000E+00  0.0000E+00  0.0000E+00  0.0000E+00  0.0000E+00  0.0000E+00  0.0000E+00  0.0000E+00  0.0000E+00  0.0000E+00  0.0000E+00  0.0000E+00  0.0000E+00  0.0000E+00
    -18.996  0.0000E+00  0.0000E+00  0.0000E+00  0.0000E+00  0.0000E+00  0.0000E+00  0.0000E+00  0.0000E+00  0.0000E+00  0.0000E+00  0.0000E+00  0.0000E+00  0.0000E+00  0.0000E+00  0.0000E+00  0.0000E+00  0.0000E+00  0.0000E+00
    -18.915  0.0000E+00  0.0000E+00  0.0000E+00  0.0000E+00  0.0000E+00  0.0000E+00  0.0000E+00  0.0000E+00  0.0000E+00  0.0000E+00  0.0000E+00  0.0000E+00  0.0000E+00  0.0000E+00  0.0000E+00  0.0000E+00  0.0000E+00  0.0000E+00
    -18.833  0.0000E+00  0.0000E+00  0.0000E+00  0.0000E+00  0.0000E+00  0.0000E+00  0.0000E+00  0.0000E+00  0.0000E+00  0.0000E+00  0.0000E+00  0.0000E+00  0.0000E+00  0.0000E+00  0.0000E+00  0.0000E+00  0.0000E+00  0.0000E+00
    -18.752  0.0000E+00  0.0000E+00  0.0000E+00  0.0000E+00  0.0000E+00  0.0000E+00  0.0000E+00  0.0000E+00  0.0000E+00  0.0000E+00  0.0000E+00  0.0000E+00  0.0000E+00  0.0000E+00  0.0000E+00  0.0000E+00  0.0000E+00  0.0000E+00
    -18.671  0.0000E+00  0.0000E+00  0.0000E+00  0.0000E+00  0.0000E+00  0.0000E+00  0.0000E+00  0.0000E+00  0.0000E+00  0.0000E+00  0.0000E+00  0.0000E+00  0.0000E+00  0.0000E+00  0.0000E+00  0.0000E+00  0.0000E+00  0.0000E+00
    -18.589  0.0000E+00  0.0000E+00  0.0000E+00  0.0000E+00  0.0000E+00  0.0000E+00  0.0000E+00  0.0000E+00  0.0000E+00  0.0000E+00  0.0000E+00  0.0000E+00  0.0000E+00  0.0000E+00  0.0000E+00  0.0000E+00  0.0000E+00  0.0000E+00
    -18.508  0.0000E+00  0.0000E+00  0.0000E+00  0.0000E+00  0.0000E+00  0.0000E+00  0.0000E+00  0.0000E+00  0.0000E+00  0.0000E+00  0.0000E+00  0.0000E+00  0.0000E+00  0.0000E+00  0.0000E+00  0.0000E+00  0.0000E+00  0.0000E+00
    -18.427  0.0000E+00  0.0000E+00  0.0000E+00  0.0000E+00  0.0000E+00  0.0000E+00  0.0000E+00  0.0000E+00  0.0000E+00  0.0000E+00  0.0000E+00  0.0000E+00  0.0000E+00  0.0000E+00  0.0000E+00  0.0000E+00  0.0000E+00  0.0000E+00
    -18.345  0.0000E+00  0.0000E+00  0.0000E+00  0.0000E+00  0.0000E+00  0.0000E+00  0.0000E+00  0.0000E+00  0.0000E+00  0.0000E+00  0.0000E+00  0.0000E+00  0.0000E+00  0.0000E+00  0.0000E+00  0.0000E+00  0.0000E+00  0.0000E+00
    -18.264  0.0000E+00  0.0000E+00  0.0000E+00  0.0000E+00  0.0000E+00  0.0000E+00  0.0000E+00  0.0000E+00  0.0000E+00  0.0000E+00  0.0000E+00  0.0000E+00  0.0000E+00  0.0000E+00  0.0000E+00  0.0000E+00  0.0000E+00  0.0000E+00
    -18.183  0.0000E+00  0.0000E+00  0.0000E+00  0.0000E+00  0.0000E+00  0.0000E+00  0.0000E+00  0.0000E+00  0.0000E+00  0.0000E+00  0.0000E+00  0.0000E+00  0.0000E+00  0.0000E+00  0.0000E+00  0.0000E+00  0.0000E+00  0.0000E+00