    5    5    1    2
  0.2000000E+03  0.1000000E-08  0.1000000E-08  0.1000000E-08  0.1000000E-16
  1.000000000000000E-004
  CAR 
 unknown system                          
     14      1     12
 
  0.0000000E+00  0.0000000E+00  0.0000000E+00  0.1000000E+01
    1      -21.139547    -21.139783   1.000000   1.000000
    2      -16.462410    -16.462622   1.000000   1.000000
    3      -10.676308    -10.668304   1.000000   1.000000
    4      -10.639026    -10.647487   1.000000   1.000000
    5      -10.082348    -10.082327   1.000000   1.000000
    6       -6.781654     -6.811471   1.039127   1.016684
    7       -6.757211     -6.727842   0.960873   0.983316
    8       -0.534386     -0.535538   0.000000   0.000000
    9       -0.124289     -0.127011   0.000000   0.000000
   10        0.949998      0.974265   0.000000   0.000000
   11        1.009694      0.998168   0.000000   0.000000
   12        1.038975      1.026061   0.000000   0.000000
