 vasp.5.4.1 24Jun15 (build Jul 07 2016 20:05:55) complex                        
  
 executed on           IFC91_ompi date 2017.12.22  16:44:43
 running on   12 total cores
 distrk:  each k-point on   12 cores,    1 groups
 distr:  one band on NCORES_PER_BAND=   1 cores,   12 groups


--------------------------------------------------------------------------------------------------------


 INCAR:
 POTCAR:    PAW_PBE C 08Apr2002                   
 POTCAR:    PAW_PBE Cl 06Sep2000                  
 POTCAR:    PAW_PBE H 15Jun2001                   

 ----------------------------------------------------------------------------- 
|                                                                             |
|           W    W    AA    RRRRR   N    N  II  N    N   GGGG   !!!           |
|           W    W   A  A   R    R  NN   N  II  NN   N  G    G  !!!           |
|           W    W  A    A  R    R  N N  N  II  N N  N  G       !!!           |
|           W WW W  AAAAAA  RRRRR   N  N N  II  N  N N  G  GGG   !            |
|           WW  WW  A    A  R   R   N   NN  II  N   NN  G    G                |
|           W    W  A    A  R    R  N    N  II  N    N   GGGG   !!!           |
|                                                                             |
|      For optimal performance we recommend to set                            |
|        NCORE= 4 - approx SQRT( number of cores)                             |
|      NCORE specifies how many cores store one orbital (NPAR=cpu/NCORE).     |
|      This setting can  greatly improve the performance of VASP for DFT.     |
|      The default, NPAR=number of cores might be grossly inefficient         |
|      on modern multi-core architectures or massively parallel machines.     |
|      Do your own testing !!!!                                               |
|      Unfortunately you need to use the default for GW and RPA calculations. |
|      (for HF NCORE is supported but not extensively tested yet)             |
|                                                                             |
 ----------------------------------------------------------------------------- 

 POTCAR:    PAW_PBE C 08Apr2002                   
   VRHFIN =C: s2p2                                                              
   LEXCH  = PE                                                                  
   EATOM  =   147.1560 eV,   10.8157 Ry                                         
                                                                                
   TITEL  = PAW_PBE C 08Apr2002                                                 
   LULTRA =        F    use ultrasoft PP ?                                      
   IUNSCR =        1    unscreen: 0-lin 1-nonlin 2-no                           
   RPACOR =    1.200    partial core radius                                     
   POMASS =   12.011; ZVAL   =    4.000    mass and valenz                      
   RCORE  =    1.500    outmost cutoff radius                                   
   RWIGS  =    1.630; RWIGS  =    0.863    wigner-seitz radius (au A)           
   ENMAX  =  400.000; ENMIN  =  300.000 eV                                      
   ICORE  =        2    local potential                                         
   LCOR   =        T    correct aug charges                                     
   LPAW   =        T    paw PP                                                  
   EAUG   =  644.873                                                            
   DEXC   =    0.000                                                            
   RMAX   =    1.529    core radius for proj-oper                               
   RAUG   =    1.300    factor for augmentation sphere                          
   RDEP   =    1.501    radius for radial grids                                 
   RDEPT  =    1.300    core radius for aug-charge                              
                                                                                
   Atomic configuration                                                         
    4 entries                                                                   
     n  l   j            E        occ.                                          
     1  0  0.50      -273.3789   2.0000                                         
     2  0  0.50       -13.7508   2.0000                                         
     2  1  0.50        -5.2854   2.0000                                         
     3  2  1.50        -5.4423   0.0000                                         
   Description                                                                  
     l       E           TYP  RCUT    TYP  RCUT                                 
     0    -13.7508458     23  1.200                                             
     0     -8.2022199     23  1.200                                             
     1     -5.2854383     23  1.500                                             
     1     34.0145650     23  1.500                                             
     2     -5.4423304      7  1.500                                             
  local pseudopotential read in
  partial core-charges read in
  partial kinetic energy density read in
  atomic valenz-charges read in
  non local Contribution for L=           0  read in
    real space projection operators read in
  non local Contribution for L=           0  read in
    real space projection operators read in
  non local Contribution for L=           1  read in
    real space projection operators read in
  non local Contribution for L=           1  read in
    real space projection operators read in
    PAW grid and wavefunctions read in
 
   number of l-projection  operators is LMAX  =           4
   number of lm-projection operators is LMMAX =           8
 
 POTCAR:    PAW_PBE Cl 06Sep2000                  
   VRHFIN =Cl: s2p5                                                             
   LEXCH  = PE                                                                  
   EATOM  =   409.7259 eV,   30.1140 Ry                                         
                                                                                
   TITEL  = PAW_PBE Cl 06Sep2000                                                
   LULTRA =        F    use ultrasoft PP ?                                      
   IUNSCR =        1    unscreen: 0-lin 1-nonlin 2-no                           
   RPACOR =    1.500    partial core radius                                     
   POMASS =   35.453; ZVAL   =    7.000    mass and valenz                      
   RCORE  =    1.900    outmost cutoff radius                                   
   RWIGS  =    2.100; RWIGS  =    1.111    wigner-seitz radius (au A)           
   ENMAX  =  262.472; ENMIN  =  196.854 eV                                      
   ICORE  =        2    local potential                                         
   LCOR   =        T    correct aug charges                                     
   LPAW   =        T    paw PP                                                  
   EAUG   =  356.192                                                            
   DEXC   =    0.000                                                            
   RMAX   =    1.945    core radius for proj-oper                               
   RAUG   =    1.300    factor for augmentation sphere                          
   RDEP   =    2.020    radius for radial grids                                 
   RDEPT  =    1.678    core radius for aug-charge                              
                                                                                
   Atomic configuration                                                         
    6 entries                                                                   
     n  l   j            E        occ.                                          
     1  0  0.50     -2751.1850   2.0000                                         
     2  0  0.50      -252.6861   2.0000                                         
     2  1  1.50      -191.6157   6.0000                                         
     3  0  0.50       -20.6916   2.0000                                         
     3  1  0.50        -8.5949   5.0000                                         
     3  2  1.50        -8.1635   0.0000                                         
   Description                                                                  
     l       E           TYP  RCUT    TYP  RCUT                                 
     0    -20.6915656     23  1.900                                             
     0    -22.0521482     23  1.900                                             
     1     -8.5948577     23  1.900                                             
     1     -5.3847331     23  1.900                                             
     2     -8.1634956     23  1.900                                             
  local pseudopotential read in
  partial core-charges read in
  partial kinetic energy density read in
  atomic valenz-charges read in
  non local Contribution for L=           0  read in
    real space projection operators read in
  non local Contribution for L=           0  read in
    real space projection operators read in
  non local Contribution for L=           1  read in
    real space projection operators read in
  non local Contribution for L=           1  read in
    real space projection operators read in
    PAW grid and wavefunctions read in
 
   number of l-projection  operators is LMAX  =           4
   number of lm-projection operators is LMMAX =           8
 
 POTCAR:    PAW_PBE H 15Jun2001                   
   VRHFIN =H: ultrasoft test                                                    
   LEXCH  = PE                                                                  
   EATOM  =    12.4884 eV,    0.9179 Ry                                         
                                                                                
   TITEL  = PAW_PBE H 15Jun2001                                                 
   LULTRA =        F    use ultrasoft PP ?                                      
   IUNSCR =        0    unscreen: 0-lin 1-nonlin 2-no                           
   RPACOR =    0.000    partial core radius                                     
   POMASS =    1.000; ZVAL   =    1.000    mass and valenz                      
   RCORE  =    1.100    outmost cutoff radius                                   
   RWIGS  =    0.700; RWIGS  =    0.370    wigner-seitz radius (au A)           
   ENMAX  =  250.000; ENMIN  =  200.000 eV                                      
   RCLOC  =    0.701    cutoff for local pot                                    
   LCOR   =        T    correct aug charges                                     
   LPAW   =        T    paw PP                                                  
   EAUG   =  400.000                                                            
   RMAX   =    1.123    core radius for proj-oper                               
   RAUG   =    1.200    factor for augmentation sphere                          
   RDEP   =    1.112    radius for radial grids                                 
   RDEPT  =    0.926    core radius for aug-charge                              
                                                                                
   Atomic configuration                                                         
    2 entries                                                                   
     n  l   j            E        occ.                                          
     1  0  0.50        -6.4927   1.0000                                         
     2  1  0.50        -3.4015   0.0000                                         
   Description                                                                  
     l       E           TYP  RCUT    TYP  RCUT                                 
     0     -6.4927494     23  1.100                                             
     0      6.8029130     23  1.100                                             
     1     -4.0817478     23  1.100                                             
  local pseudopotential read in
  atomic valenz-charges read in
  non local Contribution for L=           0  read in
    real space projection operators read in
  non local Contribution for L=           0  read in
    real space projection operators read in
  non local Contribution for L=           1  read in
    real space projection operators read in
    PAW grid and wavefunctions read in
 
   number of l-projection  operators is LMAX  =           3
   number of lm-projection operators is LMMAX =           5
 

 ----------------------------------------------------------------------------- 
|                                                                             |
|  ADVICE TO THIS USER RUNNING 'VASP/VAMP'   (HEAR YOUR MASTER'S VOICE ...):  |
|                                                                             |
|      You have a (more or less) 'small supercell' and for smaller cells      |
|      it is recommended  to use the reciprocal-space projection scheme!      |
|      The real space optimization is not  efficient for small cells and it   |
|      is also less accurate ...                                              |
|      Therefore set LREAL=.FALSE. in the  INCAR file                         |
|                                                                             |
 ----------------------------------------------------------------------------- 

 Optimization of the real space projectors (new method)

 maximal supplied QI-value         = 25.13
 optimisation between [QCUT,QGAM] = [  8.80, 17.59] = [ 21.67, 86.68] Ry 
 Optimized for a Real-space Cutoff    1.50 Angstroem

   l    n(q)    QCUT    max X(q) W(low)/X(q) W(high)/X(q)  e(spline) 
   0      8     8.797   115.676    0.19E-03    0.26E-04    0.42E-06
   0      8     8.797    87.132    0.19E-03    0.33E-04    0.41E-06
   1      7     8.797     4.429    0.42E-04    0.48E-03    0.42E-06
   1      7     8.797     2.661    0.83E-04    0.56E-03    0.43E-06
 Optimization of the real space projectors (new method)

 maximal supplied QI-value         = 19.84
 optimisation between [QCUT,QGAM] = [  8.73, 17.66] = [ 21.34, 87.33] Ry 
 Optimized for a Real-space Cutoff    1.50 Angstroem

   l    n(q)    QCUT    max X(q) W(low)/X(q) W(high)/X(q)  e(spline) 
   0      8     8.731   168.010    0.15E-03    0.93E-04    0.15E-06
   0      8     8.731   164.674    0.15E-03    0.90E-04    0.14E-06
   1      7     8.731    69.222    0.14E-03    0.42E-03    0.20E-06
   1      7     8.731    56.786    0.14E-03    0.41E-03    0.20E-06
 Optimization of the real space projectors (new method)

 maximal supplied QI-value         = 34.20
 optimisation between [QCUT,QGAM] = [  8.55, 17.44] = [ 20.48, 85.21] Ry 
 Optimized for a Real-space Cutoff    1.74 Angstroem

   l    n(q)    QCUT    max X(q) W(low)/X(q) W(high)/X(q)  e(spline) 
   0      9     8.551    19.232    0.13E-03    0.35E-03    0.91E-06
   0      9     8.551    12.169    0.12E-03    0.33E-03    0.87E-06
   1      9     8.551     4.465    0.19E-03    0.70E-03    0.86E-06
  PAW_PBE C 08Apr2002                   :
 energy of atom  1       EATOM= -147.1560
 kinetic energy error for atom=    0.2561 (will be added to EATOM!!)
  PAW_PBE Cl 06Sep2000                  :
 energy of atom  2       EATOM= -409.7259
 kinetic energy error for atom=    0.0150 (will be added to EATOM!!)
  PAW_PBE H 15Jun2001                   :
 energy of atom  3       EATOM=  -12.4884
 kinetic energy error for atom=    0.0426 (will be added to EATOM!!)
 
 
 POSCAR:  C Cl  H                                
  positions in cartesian coordinates
  No initial velocities read in
 exchange correlation table for  LEXCH =        8
   RHO(1)=    0.500       N(1)  =     2000
   RHO(2)=  100.500       N(2)  =     4000

 VTST: version 3.1, (03/28/14)

 CHAIN: initializing optimizer
 
 OPT: Using VASP Dynamics algorithm
 CHAIN: Read ICHAIN            0
 
 POSCAR:  C Cl  H                                
  positions in cartesian coordinates
  No initial velocities read in
 


--------------------------------------------------------------------------------------------------------


 ion  position               nearest neighbor table
   1  0.430  0.477  0.497-   4 1.09   5 1.09   3 1.09   2 1.77
   2  0.606  0.477  0.497-   1 1.77
   3  0.394  0.431  0.589-   1 1.09
   4  0.394  0.420  0.411-   1 1.09
   5  0.394  0.580  0.490-   1 1.09
 
  LATTYP: Found a simple cubic cell.
 ALAT       =    10.0000000000
  
  Lattice vectors:
  
 A1 = (  10.0000000000,   0.0000000000,   0.0000000000)
 A2 = (   0.0000000000,  10.0000000000,   0.0000000000)
 A3 = (   0.0000000000,   0.0000000000,  10.0000000000)


Analysis of symmetry for initial positions (statically):
=====================================================================
 Subroutine PRICEL returns:
 Original cell was already a primitive cell.
 

 Routine SETGRP: Setting up the symmetry group for a 
 simple cubic supercell.


 Subroutine GETGRP returns: Found  1 space group operations
 (whereof  1 operations were pure point group operations)
 out of a pool of 48 trial point group operations.


The static configuration has the point symmetry C_1 .


Analysis of symmetry for dynamics (positions and initial velocities):
=====================================================================
 Subroutine PRICEL returns:
 Original cell was already a primitive cell.
 

 Routine SETGRP: Setting up the symmetry group for a 
 simple cubic supercell.


 Subroutine GETGRP returns: Found  1 space group operations
 (whereof  1 operations were pure point group operations)
 out of a pool of 48 trial point group operations.


The dynamic configuration has the point symmetry C_1 .


Analysis of magnetic symmetry:
=====================================================================
 Subroutine PRICEL returns:
 Original cell was already a primitive cell.
 

 Subroutine MAGSYM returns: Found  1 space group operations
 (whereof  1 operations were pure point group operations)
 out of a pool of  1 trial space group operations
 (whereof  1 operations were pure point group operations)
 and found also     1 'primitive' translations


The magnetic configuration has the point symmetry C_1 .
 
 
 KPOINTS: KPOINTS created by Atomic Simulation Env

Automatic generation of k-mesh.
Space group operators:
 irot       det(A)        alpha          n_x          n_y          n_z        tau_x        tau_y        tau_z
    1     1.000000     0.000000     1.000000     0.000000     0.000000     0.000000     0.000000     0.000000
 
 Subroutine IBZKPT returns following result:
 ===========================================
 
 Found      1 irreducible k-points:
 
 Following reciprocal coordinates:
            Coordinates               Weight
  0.000000  0.000000  0.000000      1.000000
 
 Following cartesian coordinates:
            Coordinates               Weight
  0.000000  0.000000  0.000000      1.000000
 
 
 Subroutine IBZKPT_HF returns following result:
 ==============================================
 
 Found      1 k-points in 1st BZ
 the following      1 k-points will be used (e.g. in the exchange kernel)
 Following reciprocal coordinates:   # in IRBZ
  0.000000  0.000000  0.000000    1.00000000   1 t-inv F


--------------------------------------------------------------------------------------------------------




 Dimension of arrays:
   k-points           NKPTS =      1   k-points in BZ     NKDIM =      1   number of bands    NBANDS=     12
   number of dos      NEDOS =    301   number of ions     NIONS =      5
   non local maximal  LDIM  =      4   non local SUM 2l+1 LMDIM =      8
   total plane-waves  NPLWV = 175616
   max r-space proj   IRMAX =   3938   max aug-charges    IRDMAX=   5247
   dimension x,y,z NGX =    56 NGY =   56 NGZ =   56
   dimension x,y,z NGXF=   112 NGYF=  112 NGZF=  112
   support grid    NGXF=   112 NGYF=  112 NGZF=  112
   ions per type =               1   1   3
 NGX,Y,Z   is equivalent  to a cutoff of   9.31,  9.31,  9.31 a.u.
 NGXF,Y,Z  is equivalent  to a cutoff of  18.62, 18.62, 18.62 a.u.


 I would recommend the setting:
   dimension x,y,z NGX =    56 NGY =   56 NGZ =   56
 SYSTEM =  unknown system                          
 POSCAR =   C Cl  H                                

 Startparameter for this run:
   NWRITE =      2    write-flag & timer
   PREC   = accura    normal or accurate (medium, high low for compatibility)
   ISTART =      0    job   : 0-new  1-cont  2-samecut
   ICHARG =      2    charge: 1-file 2-atom 10-const
   ISPIN  =      2    spin polarized calculation?
   LNONCOLLINEAR =      F non collinear calculations
   LSORBIT =      F    spin-orbit coupling
   INIWAV =      1    electr: 0-lowe 1-rand  2-diag
   LASPH  =      F    aspherical Exc in radial PAW
   METAGGA=      F    non-selfconsistent MetaGGA calc.

 Electronic Relaxation 1
   ENCUT  =  300.0 eV  22.05 Ry    4.70 a.u.  14.12 14.12 14.12*2*pi/ulx,y,z
   ENINI  =  300.0     initial cutoff
   ENAUG  =  644.9 eV  augmentation charge cutoff
   NELM   =    200;   NELMIN=  2; NELMDL= -5     # of ELM steps 
   EDIFF  = 0.1E-03   stopping-criterion for ELM
   LREAL  =      T    real-space projection
   NLSPLINE    = F    spline interpolate recip. space projectors
   LCOMPAT=      F    compatible to vasp.4.4
   GGA_COMPAT  = T    GGA compatible to vasp.4.4-vasp.4.6
   LMAXPAW     = -100 max onsite density
   LMAXMIX     =    2 max onsite mixed and CHGCAR
   VOSKOWN=      0    Vosko Wilk Nusair interpolation
   ROPT   =   -0.00025  -0.00025  -0.00025
 Ionic relaxation
   EDIFFG = -.2E-01   stopping-criterion for IOM
   NSW    =     97    number of steps for IOM
   NBLOCK =      1;   KBLOCK =      1    inner block; outer block 
   IBRION =      5    ionic relax: 0-MD 1-quasi-New 2-CG
   NFREE  =      2    steps in history (QN), initial steepest desc. (CG)
   ISIF   =      2    stress and relaxation
   IWAVPR =     11    prediction:  0-non 1-charg 2-wave 3-comb
   ISYM   =      2    0-nonsym 1-usesym 2-fastsym
   LCORR  =      T    Harris-Foulkes like correction to forces

   POTIM  = 0.0100    time-step for ionic-motion
   TEIN   =    0.0    initial temperature
   TEBEG  =    0.0;   TEEND  =   0.0 temperature during run
   SMASS  =  -3.00    Nose mass-parameter (am)
   estimated Nose-frequenzy (Omega)   =  0.10E-29 period in steps =****** mass=  -0.229E-26a.u.
   SCALEE = 1.0000    scale energy and forces
   NPACO  =    256;   APACO  = 16.0  distance and # of slots for P.C.
   PSTRESS=    0.0 pullay stress

  Mass of Ions in am
   POMASS =  12.01 35.45  1.00
  Ionic Valenz
   ZVAL   =   4.00  7.00  1.00
  Atomic Wigner-Seitz radii
   RWIGS  =  -1.00 -1.00 -1.00
  virtual crystal weights 
   VCA    =   1.00  1.00  1.00
   NELECT =      14.0000    total number of electrons
   NUPDOWN=       0.0000    fix difference up-down

 DOS related values:
   EMIN   =  10.00;   EMAX   =-10.00  energy-range for DOS
   EFERMI =   0.00
   ISMEAR =     2;   SIGMA  =   0.10  broadening in eV -4-tet -1-fermi 0-gaus

 Electronic relaxation 2 (details)
   IALGO  =     68    algorithm
   LDIAG  =      T    sub-space diagonalisation (order eigenvalues)
   LSUBROT=      F    optimize rotation matrix (better conditioning)
   TURBO    =      0    0=normal 1=particle mesh
   IRESTART =      0    0=no restart 2=restart with 2 vectors
   NREBOOT  =      0    no. of reboots
   NMIN     =      0    reboot dimension
   EREF     =   0.00    reference energy to select bands
   IMIX   =      4    mixing-type and parameters
     AMIX     =   0.40;   BMIX     =  1.00
     AMIX_MAG =   1.60;   BMIX_MAG =  1.00
     AMIN     =   0.10
     WC   =   100.;   INIMIX=   1;  MIXPRE=   1;  MAXMIX= -45

 Intra band minimization:
   WEIMIN = 0.0010     energy-eigenvalue tresh-hold
   EBREAK =  0.21E-05  absolut break condition
   DEPER  =   0.30     relativ break condition  

   TIME   =   0.40     timestep for ELM

  volume/ion in A,a.u.               =     200.00      1349.67
  Fermi-wavevector in a.u.,A,eV,Ry     =   0.394564  0.745618  2.118166  0.155681
  Thomas-Fermi vector in A             =   1.339407
 
 Write flags
   LWAVE  =      F    write WAVECAR
   LCHARG =      F    write CHGCAR
   LVTOT  =      F    write LOCPOT, total local potential
   LVHAR  =      F    write LOCPOT, Hartree potential only
   LELF   =      F    write electronic localiz. function (ELF)
   LORBIT =     11    0 simple, 1 ext, 2 COOP (PROOUT)


 Dipole corrections
   LMONO  =      F    monopole corrections only (constant potential shift)
   LDIPOL =      F    correct potential (dipole corrections)
   IDIPOL =      3    1-x, 2-y, 3-z, 4-all directions 
   EPSILON=  1.0000000 bulk dielectric constant

 Exchange correlation treatment:
   GGA     =    --    GGA type
   LEXCH   =     8    internal setting for exchange type
   VOSKOWN=      0    Vosko Wilk Nusair interpolation
   LHFCALC =     F    Hartree Fock is set to
   LHFONE  =     F    Hartree Fock one center treatment
   AEXX    =    0.0000 exact exchange contribution

 Linear response parameters
   LEPSILON=     F    determine dielectric tensor
   LRPA    =     F    only Hartree local field effects (RPA)
   LNABLA  =     F    use nabla operator in PAW spheres
   LVEL    =     F    velocity operator in full k-point grid
   LINTERFAST=   F  fast interpolation
   KINTER  =     0    interpolate to denser k-point grid
   CSHIFT  =0.1000    complex shift for real part using Kramers Kronig
   OMEGAMAX=  -1.0    maximum frequency
   DEG_THRESHOLD= 0.2000000E-02 threshold for treating states as degnerate
   RTIME   =    0.100 relaxation time in fs

 Orbital magnetization related:
   ORBITALMAG=     F  switch on orbital magnetization
   LCHIMAG   =     F  perturbation theory with respect to B field
   DQ        =  0.001000  dq finite difference perturbation B field



--------------------------------------------------------------------------------------------------------


 finite differences
 charge density and potential will be updated during run
 spin polarized calculation
 RMM-DIIS sequential band-by-band and
  variant of blocked Davidson during initial phase
 perform sub-space diagonalisation
    before iterative eigenvector-optimisation
 modified Broyden-mixing scheme, WC =      100.0
 initial mixing is a Kerker type mixing with AMIX =  0.4000 and BMIX =      1.0000
 Hartree-type preconditioning will be used
 using additional bands            5
 real space projection scheme for non local part
 use partial core corrections
 calculate Harris-corrections to forces 
   (improved forces if not selfconsistent)
 use gradient corrections 
 use of overlap-Matrix (Vanderbilt PP)
 Methfessel and Paxton  Order N= 2 SIGMA  =   0.10


--------------------------------------------------------------------------------------------------------


  energy-cutoff  :      300.00
  volume of cell :     1000.00
      direct lattice vectors                 reciprocal lattice vectors
    10.000000000  0.000000000  0.000000000     0.100000000  0.000000000  0.000000000
     0.000000000 10.000000000  0.000000000     0.000000000  0.100000000  0.000000000
     0.000000000  0.000000000 10.000000000     0.000000000  0.000000000  0.100000000

  length of vectors
    10.000000000 10.000000000 10.000000000     0.100000000  0.100000000  0.100000000


 
 k-points in units of 2pi/SCALE and weight: KPOINTS created by Atomic Simulation Env
   0.00000000  0.00000000  0.00000000       1.000
 
 k-points in reciprocal lattice and weights: KPOINTS created by Atomic Simulation Env
   0.00000000  0.00000000  0.00000000       1.000
 
 position of ions in fractional coordinates (direct lattice) 
   0.42950300  0.47713450  0.49666800
   0.60620000  0.47713450  0.49666800
   0.39380000  0.43140350  0.58920400
   0.39380000  0.41986150  0.41079600
   0.39380000  0.58013850  0.49000400
 
 position of ions in cartesian coordinates  (Angst):
   4.29503000  4.77134500  4.96668000
   6.06200000  4.77134500  4.96668000
   3.93800000  4.31403500  5.89204000
   3.93800000  4.19861500  4.10796000
   3.93800000  5.80138500  4.90004000
 


--------------------------------------------------------------------------------------------------------


 k-point  1 :   0.0000 0.0000 0.0000  plane waves:   11753

 maximum and minimum number of plane-waves per node :     11753    11753

 maximum number of plane-waves:     11753
 maximum index in each direction: 
   IXMAX=   14   IYMAX=   14   IZMAX=   14
   IXMIN=  -14   IYMIN=  -14   IZMIN=  -14

 WARNING: aliasing errors must be expected set NGX to  58 to avoid them
 WARNING: aliasing errors must be expected set NGY to  58 to avoid them
 WARNING: aliasing errors must be expected set NGZ to  58 to avoid them
 aliasing errors are usually negligible using standard VASP settings
 and one can safely disregard these warnings

 serial   3D FFT for wavefunctions
 parallel 3D FFT for charge:
    minimum data exchange during FFTs selected (reduces bandwidth)


 total amount of memory used by VASP on root node    61864. kBytes
========================================================================

   base      :      30000. kBytes
   nonlr-proj:       1173. kBytes
   fftplans  :       4935. kBytes
   grid      :      25349. kBytes
   one-center:         30. kBytes
   wavefun   :        377. kBytes
 
     INWAV:  cpu time    0.0010: real time    0.0001
 Broyden mixing: mesh for mixing (old mesh)
   NGX = 29   NGY = 29   NGZ = 29
  (NGX  =112   NGY  =112   NGZ  =112)
  gives a total of  24389 points

 initial charge density was supplied:
 charge density of overlapping atoms calculated
 number of electron      14.0000000 magnetization       0.0000000
 keeping initial charge density in first step


--------------------------------------------------------------------------------------------------------


 Maximum index for non-local projection operator         3801
 Maximum index for augmentation-charges          450 (set IRDMAX)


--------------------------------------------------------------------------------------------------------


 First call to EWALD:  gamma=   0.177
 Maximum number of real-space cells 3x 3x 3
 Maximum number of reciprocal cells 3x 3x 3

 FEWALD executed in parallel
    FEWALD:  cpu time    0.0020: real time    0.0026


----------------------------------------- Iteration    1(   1)  ---------------------------------------


    POTLOK:  cpu time    0.3050: real time    0.3064
    SETDIJ:  cpu time    0.0070: real time    0.0065
     EDDAV:  cpu time    0.2020: real time    0.2025
       DOS:  cpu time    0.0010: real time    0.0004
    --------------------------------------------
      LOOP:  cpu time    0.5169: real time    0.5198

 eigenvalue-minimisations  :    60
 total energy-change (2. order) : 0.9004678E+02  (-0.3205564E+03)
 number of electron      14.0000000 magnetization       0.0000000
 augmentation part       14.0000000 magnetization       0.0000000

 Free energy of the ion-electron system (eV)
  ---------------------------------------------------
  alpha Z        PSCENC =         0.81223224
  Ewald energy   TEWEN  =       145.29194979
  -Hartree energ DENC   =      -601.48865606
  -exchange      EXHF   =         0.00000000
  -V(xc)+E(xc)   XCENC  =        39.82255589
  PAW double counting   =       440.19968802     -440.90946169
  entropy T*S    EENTRO =         0.00379227
  eigenvalues    EBANDS =       -87.63349849
  atomic energy  EATOM  =       593.94817731
  Solvation  Ediel_sol  =         0.00000000
  ---------------------------------------------------
  free energy    TOTEN  =        90.04677927 eV

  energy without entropy =       90.04298700  energy(sigma->0) =       90.04583120


--------------------------------------------------------------------------------------------------------




----------------------------------------- Iteration    1(   2)  ---------------------------------------


     EDDAV:  cpu time    0.1980: real time    0.1999
       DOS:  cpu time    0.0000: real time    0.0003
    --------------------------------------------
      LOOP:  cpu time    0.1980: real time    0.2020

 eigenvalue-minimisations  :    60
 total energy-change (2. order) :-0.8188182E+02  (-0.8186566E+02)
 number of electron      14.0000000 magnetization       0.0000000
 augmentation part       14.0000000 magnetization       0.0000000

 Free energy of the ion-electron system (eV)
  ---------------------------------------------------
  alpha Z        PSCENC =         0.81223224
  Ewald energy   TEWEN  =       145.29194979
  -Hartree energ DENC   =      -601.48865606
  -exchange      EXHF   =         0.00000000
  -V(xc)+E(xc)   XCENC  =        39.82255589
  PAW double counting   =       440.19968802     -440.90946169
  entropy T*S    EENTRO =         0.00550610
  eigenvalues    EBANDS =      -169.51703566
  atomic energy  EATOM  =       593.94817731
  Solvation  Ediel_sol  =         0.00000000
  ---------------------------------------------------
  free energy    TOTEN  =         8.16495594 eV

  energy without entropy =        8.15944983  energy(sigma->0) =        8.16357941


--------------------------------------------------------------------------------------------------------




----------------------------------------- Iteration    1(   3)  ---------------------------------------


     EDDAV:  cpu time    0.1980: real time    0.1993
       DOS:  cpu time    0.0000: real time    0.0004
    --------------------------------------------
      LOOP:  cpu time    0.2000: real time    0.2019

 eigenvalue-minimisations  :    60
 total energy-change (2. order) :-0.3141193E+02  (-0.3141339E+02)
 number of electron      14.0000000 magnetization       0.0000000
 augmentation part       14.0000000 magnetization       0.0000000

 Free energy of the ion-electron system (eV)
  ---------------------------------------------------
  alpha Z        PSCENC =         0.81223224
  Ewald energy   TEWEN  =       145.29194979
  -Hartree energ DENC   =      -601.48865606
  -exchange      EXHF   =         0.00000000
  -V(xc)+E(xc)   XCENC  =        39.82255589
  PAW double counting   =       440.19968802     -440.90946169
  entropy T*S    EENTRO =         0.00908417
  eigenvalues    EBANDS =      -200.93254590
  atomic energy  EATOM  =       593.94817731
  Solvation  Ediel_sol  =         0.00000000
  ---------------------------------------------------
  free energy    TOTEN  =       -23.24697624 eV

  energy without entropy =      -23.25606041  energy(sigma->0) =      -23.24924728


--------------------------------------------------------------------------------------------------------




----------------------------------------- Iteration    1(   4)  ---------------------------------------


     EDDAV:  cpu time    0.2950: real time    0.2957
       DOS:  cpu time    0.0010: real time    0.0003
    --------------------------------------------
      LOOP:  cpu time    0.2970: real time    0.2980

 eigenvalue-minimisations  :    96
 total energy-change (2. order) :-0.1147966E+01  (-0.1149901E+01)
 number of electron      14.0000000 magnetization       0.0000000
 augmentation part       14.0000000 magnetization       0.0000000

 Free energy of the ion-electron system (eV)
  ---------------------------------------------------
  alpha Z        PSCENC =         0.81223224
  Ewald energy   TEWEN  =       145.29194979
  -Hartree energ DENC   =      -601.48865606
  -exchange      EXHF   =         0.00000000
  -V(xc)+E(xc)   XCENC  =        39.82255589
  PAW double counting   =       440.19968802     -440.90946169
  entropy T*S    EENTRO =         0.01101252
  eigenvalues    EBANDS =      -202.08244052
  atomic energy  EATOM  =       593.94817731
  Solvation  Ediel_sol  =         0.00000000
  ---------------------------------------------------
  free energy    TOTEN  =       -24.39494251 eV

  energy without entropy =      -24.40595503  energy(sigma->0) =      -24.39769564


--------------------------------------------------------------------------------------------------------




----------------------------------------- Iteration    1(   5)  ---------------------------------------


     EDDAV:  cpu time    0.2000: real time    0.1996
       DOS:  cpu time    0.0000: real time    0.0003
    CHARGE:  cpu time    0.0590: real time    0.0596
    MIXING:  cpu time    0.0090: real time    0.0088
    --------------------------------------------
      LOOP:  cpu time    0.2680: real time    0.2705

 eigenvalue-minimisations  :    60
 total energy-change (2. order) :-0.9237842E-03  (-0.9236193E-03)
 number of electron      13.9999990 magnetization      -0.0000000
 augmentation part       -0.7857056 magnetization      -0.0000035

 Broyden mixing:
  rms(total) = 0.12185E+01    rms(broyden)= 0.12181E+01
  rms(prec ) = 0.14092E+01
  weight for this iteration     100.00

 Free energy of the ion-electron system (eV)
  ---------------------------------------------------
  alpha Z        PSCENC =         0.81223224
  Ewald energy   TEWEN  =       145.29194979
  -Hartree energ DENC   =      -601.48865606
  -exchange      EXHF   =         0.00000000
  -V(xc)+E(xc)   XCENC  =        39.82255589
  PAW double counting   =       440.19968802     -440.90946169
  entropy T*S    EENTRO =         0.01101225
  eigenvalues    EBANDS =      -202.08336403
  atomic energy  EATOM  =       593.94817731
  Solvation  Ediel_sol  =         0.00000000
  ---------------------------------------------------
  free energy    TOTEN  =       -24.39586629 eV

  energy without entropy =      -24.40687854  energy(sigma->0) =      -24.39861935


--------------------------------------------------------------------------------------------------------




----------------------------------------- Iteration    1(   6)  ---------------------------------------


    POTLOK:  cpu time    0.3050: real time    0.3075
    SETDIJ:  cpu time    0.0070: real time    0.0064
    EDDIAG:  cpu time    0.0410: real time    0.0416
  RMM-DIIS:  cpu time    0.1850: real time    0.1853
    ORTHCH:  cpu time    0.0030: real time    0.0019
       DOS:  cpu time    0.0000: real time    0.0003
    CHARGE:  cpu time    0.0570: real time    0.0578
    MIXING:  cpu time    0.0100: real time    0.0090
    --------------------------------------------
      LOOP:  cpu time    0.6089: real time    0.6125

 eigenvalue-minimisations  :    48
 total energy-change (2. order) : 0.1680705E+01  (-0.2634027E+00)
 number of electron      13.9999989 magnetization       0.0000000
 augmentation part       -0.8059193 magnetization       0.0000035

 Broyden mixing:
  rms(total) = 0.57346E+00    rms(broyden)= 0.57333E+00
  rms(prec ) = 0.64855E+00
  weight for this iteration     100.00

 eigenvalues of (default mixing * dielectric matrix)
  average eigenvalue GAMMA=   1.6246
  1.6246

 Free energy of the ion-electron system (eV)
  ---------------------------------------------------
  alpha Z        PSCENC =         0.81223224
  Ewald energy   TEWEN  =       145.29194979
  -Hartree energ DENC   =      -617.62379434
  -exchange      EXHF   =         0.00000000
  -V(xc)+E(xc)   XCENC  =        40.75684773
  PAW double counting   =       639.16374531     -640.01226432
  entropy T*S    EENTRO =         0.01101222
  eigenvalues    EBANDS =      -185.06306742
  atomic energy  EATOM  =       593.94817731
  Solvation  Ediel_sol  =         0.00000000
  ---------------------------------------------------
  free energy    TOTEN  =       -22.71516149 eV

  energy without entropy =      -22.72617371  energy(sigma->0) =      -22.71791454


--------------------------------------------------------------------------------------------------------




----------------------------------------- Iteration    1(   7)  ---------------------------------------


    POTLOK:  cpu time    0.3070: real time    0.3066
    SETDIJ:  cpu time    0.0060: real time    0.0065
    EDDIAG:  cpu time    0.0400: real time    0.0393
  RMM-DIIS:  cpu time    0.1830: real time    0.1857
    ORTHCH:  cpu time    0.0020: real time    0.0020
       DOS:  cpu time    0.0010: real time    0.0003
    CHARGE:  cpu time    0.0570: real time    0.0576
    MIXING:  cpu time    0.0100: real time    0.0092
    --------------------------------------------
      LOOP:  cpu time    0.6059: real time    0.6097

 eigenvalue-minimisations  :    48
 total energy-change (2. order) : 0.3556270E+00  (-0.7341980E-01)
 number of electron      13.9999989 magnetization       0.0000000
 augmentation part       -0.8067702 magnetization      -0.0000017

 Broyden mixing:
  rms(total) = 0.21772E+00    rms(broyden)= 0.21766E+00
  rms(prec ) = 0.24812E+00
  weight for this iteration     100.00

 eigenvalues of (default mixing * dielectric matrix)
  average eigenvalue GAMMA=   1.8244
  1.1915  2.4572

 Free energy of the ion-electron system (eV)
  ---------------------------------------------------
  alpha Z        PSCENC =         0.81223224
  Ewald energy   TEWEN  =       145.29194979
  -Hartree energ DENC   =      -629.81595975
  -exchange      EXHF   =         0.00000000
  -V(xc)+E(xc)   XCENC  =        41.62191394
  PAW double counting   =       851.15298903     -852.11575736
  entropy T*S    EENTRO =         0.01101271
  eigenvalues    EBANDS =      -173.26609240
  atomic energy  EATOM  =       593.94817731
  Solvation  Ediel_sol  =         0.00000000
  ---------------------------------------------------
  free energy    TOTEN  =       -22.35953450 eV

  energy without entropy =      -22.37054721  energy(sigma->0) =      -22.36228768


--------------------------------------------------------------------------------------------------------




----------------------------------------- Iteration    1(   8)  ---------------------------------------


    POTLOK:  cpu time    0.3060: real time    0.3064
    SETDIJ:  cpu time    0.0070: real time    0.0064
    EDDIAG:  cpu time    0.0390: real time    0.0390
  RMM-DIIS:  cpu time    0.1880: real time    0.1880
    ORTHCH:  cpu time    0.0020: real time    0.0020
       DOS:  cpu time    0.0000: real time    0.0003
    CHARGE:  cpu time    0.0580: real time    0.0580
    MIXING:  cpu time    0.0090: real time    0.0093
    --------------------------------------------
      LOOP:  cpu time    0.6089: real time    0.6118

 eigenvalue-minimisations  :    48
 total energy-change (2. order) : 0.6647322E-01  (-0.1528987E-01)
 number of electron      13.9999990 magnetization       0.0000000
 augmentation part       -0.8027885 magnetization       0.0000075

 Broyden mixing:
  rms(total) = 0.53037E-01    rms(broyden)= 0.53015E-01
  rms(prec ) = 0.69925E-01
  weight for this iteration     100.00

 eigenvalues of (default mixing * dielectric matrix)
  average eigenvalue GAMMA=   1.8134
  1.2733  2.3639  1.8029

 Free energy of the ion-electron system (eV)
  ---------------------------------------------------
  alpha Z        PSCENC =         0.81223224
  Ewald energy   TEWEN  =       145.29194979
  -Hartree energ DENC   =      -635.58226982
  -exchange      EXHF   =         0.00000000
  -V(xc)+E(xc)   XCENC  =        42.09779500
  PAW double counting   =       991.65775479     -992.65471732
  entropy T*S    EENTRO =         0.01102159
  eigenvalues    EBANDS =      -167.87500484
  atomic energy  EATOM  =       593.94817731
  Solvation  Ediel_sol  =         0.00000000
  ---------------------------------------------------
  free energy    TOTEN  =       -22.29306128 eV

  energy without entropy =      -22.30408286  energy(sigma->0) =      -22.29581668


--------------------------------------------------------------------------------------------------------




----------------------------------------- Iteration    1(   9)  ---------------------------------------


    POTLOK:  cpu time    0.3050: real time    0.3068
    SETDIJ:  cpu time    0.0070: real time    0.0063
    EDDIAG:  cpu time    0.0390: real time    0.0390
  RMM-DIIS:  cpu time    0.1870: real time    0.1875
    ORTHCH:  cpu time    0.0030: real time    0.0020
       DOS:  cpu time    0.0000: real time    0.0003
    CHARGE:  cpu time    0.0570: real time    0.0577
    MIXING:  cpu time    0.0100: real time    0.0094
    --------------------------------------------
      LOOP:  cpu time    0.6089: real time    0.6124

 eigenvalue-minimisations  :    48
 total energy-change (2. order) : 0.3968316E-02  (-0.8963766E-03)
 number of electron      13.9999990 magnetization       0.0000000
 augmentation part       -0.8040799 magnetization      -0.0000063

 Broyden mixing:
  rms(total) = 0.22648E-01    rms(broyden)= 0.22642E-01
  rms(prec ) = 0.36776E-01
  weight for this iteration     100.00

 eigenvalues of (default mixing * dielectric matrix)
  average eigenvalue GAMMA=   1.4111
  2.3507  1.8223  1.2744  0.1972

 Free energy of the ion-electron system (eV)
  ---------------------------------------------------
  alpha Z        PSCENC =         0.81223224
  Ewald energy   TEWEN  =       145.29194979
  -Hartree energ DENC   =      -636.29308139
  -exchange      EXHF   =         0.00000000
  -V(xc)+E(xc)   XCENC  =        42.10941992
  PAW double counting   =      1000.34678333    -1001.31474543
  entropy T*S    EENTRO =         0.01142540
  eigenvalues    EBANDS =      -167.20125413
  atomic energy  EATOM  =       593.94817731
  Solvation  Ediel_sol  =         0.00000000
  ---------------------------------------------------
  free energy    TOTEN  =       -22.28909296 eV

  energy without entropy =      -22.30051837  energy(sigma->0) =      -22.29194931


--------------------------------------------------------------------------------------------------------




----------------------------------------- Iteration    1(  10)  ---------------------------------------


    POTLOK:  cpu time    0.3050: real time    0.3053
    SETDIJ:  cpu time    0.0060: real time    0.0063
    EDDIAG:  cpu time    0.0390: real time    0.0391
  RMM-DIIS:  cpu time    0.1880: real time    0.1875
    ORTHCH:  cpu time    0.0020: real time    0.0020
       DOS:  cpu time    0.0000: real time    0.0003
    CHARGE:  cpu time    0.0580: real time    0.0578
    MIXING:  cpu time    0.0100: real time    0.0097
    --------------------------------------------
      LOOP:  cpu time    0.6089: real time    0.6108

 eigenvalue-minimisations  :    48
 total energy-change (2. order) :-0.2784539E-02  (-0.2574949E-03)
 number of electron      13.9999990 magnetization       0.0000000
 augmentation part       -0.8042689 magnetization      -0.0000004

 Broyden mixing:
  rms(total) = 0.21480E-01    rms(broyden)= 0.21476E-01
  rms(prec ) = 0.32505E-01
  weight for this iteration     100.00

 eigenvalues of (default mixing * dielectric matrix)
  average eigenvalue GAMMA=   1.3037
  2.3449  1.8560  1.2703  0.4627  0.5848

 Free energy of the ion-electron system (eV)
  ---------------------------------------------------
  alpha Z        PSCENC =         0.81223224
  Ewald energy   TEWEN  =       145.29194979
  -Hartree energ DENC   =      -636.57595753
  -exchange      EXHF   =         0.00000000
  -V(xc)+E(xc)   XCENC  =        42.11371136
  PAW double counting   =       998.01290857     -998.97715267
  entropy T*S    EENTRO =         0.01216359
  eigenvalues    EBANDS =      -166.92991016
  atomic energy  EATOM  =       593.94817731
  Solvation  Ediel_sol  =         0.00000000
  ---------------------------------------------------
  free energy    TOTEN  =       -22.29187750 eV

  energy without entropy =      -22.30404109  energy(sigma->0) =      -22.29491840


--------------------------------------------------------------------------------------------------------




----------------------------------------- Iteration    1(  11)  ---------------------------------------


    POTLOK:  cpu time    0.3040: real time    0.3050
    SETDIJ:  cpu time    0.0060: real time    0.0063
    EDDIAG:  cpu time    0.0390: real time    0.0391
  RMM-DIIS:  cpu time    0.1880: real time    0.1884
    ORTHCH:  cpu time    0.0030: real time    0.0020
       DOS:  cpu time    0.0000: real time    0.0004
    CHARGE:  cpu time    0.0580: real time    0.0577
    MIXING:  cpu time    0.0100: real time    0.0098
    --------------------------------------------
      LOOP:  cpu time    0.6079: real time    0.6119

 eigenvalue-minimisations  :    48
 total energy-change (2. order) : 0.1997091E-02  (-0.4898023E-03)
 number of electron      13.9999990 magnetization       0.0000000
 augmentation part       -0.8042380 magnetization       0.0000010

 Broyden mixing:
  rms(total) = 0.50641E-01    rms(broyden)= 0.50638E-01
  rms(prec ) = 0.54529E-01
  weight for this iteration     100.00

 eigenvalues of (default mixing * dielectric matrix)
  average eigenvalue GAMMA=   1.3249
  2.2161  2.2161  1.5224  1.2014  0.4602  0.3330

 Free energy of the ion-electron system (eV)
  ---------------------------------------------------
  alpha Z        PSCENC =         0.81223224
  Ewald energy   TEWEN  =       145.29194979
  -Hartree energ DENC   =      -636.93554785
  -exchange      EXHF   =         0.00000000
  -V(xc)+E(xc)   XCENC  =        42.12352052
  PAW double counting   =       995.63450092     -996.59683745
  entropy T*S    EENTRO =         0.00400840
  eigenvalues    EBANDS =      -166.57188428
  atomic energy  EATOM  =       593.94817731
  Solvation  Ediel_sol  =         0.00000000
  ---------------------------------------------------
  free energy    TOTEN  =       -22.28988041 eV

  energy without entropy =      -22.29388881  energy(sigma->0) =      -22.29088251


--------------------------------------------------------------------------------------------------------




----------------------------------------- Iteration    1(  12)  ---------------------------------------


    POTLOK:  cpu time    0.3040: real time    0.3052
    SETDIJ:  cpu time    0.0070: real time    0.0063
    EDDIAG:  cpu time    0.0400: real time    0.0391
  RMM-DIIS:  cpu time    0.1730: real time    0.1885
    ORTHCH:  cpu time    0.0030: real time    0.0021
       DOS:  cpu time    0.0000: real time    0.0003
    CHARGE:  cpu time    0.0570: real time    0.0577
    MIXING:  cpu time    0.0100: real time    0.0101
    --------------------------------------------
      LOOP:  cpu time    0.5949: real time    0.6123

 eigenvalue-minimisations  :    48
 total energy-change (2. order) :-0.1636614E-02  (-0.8357248E-04)
 number of electron      13.9999990 magnetization      -0.0000000
 augmentation part       -0.8042310 magnetization       0.0000048

 Broyden mixing:
  rms(total) = 0.49568E-01    rms(broyden)= 0.49568E-01
  rms(prec ) = 0.51626E-01
  weight for this iteration     100.00

 eigenvalues of (default mixing * dielectric matrix)
  average eigenvalue GAMMA=   1.3762
  2.4009  2.4009  1.8437  1.2382  0.8432  0.4532  0.4532

 Free energy of the ion-electron system (eV)
  ---------------------------------------------------
  alpha Z        PSCENC =         0.81223224
  Ewald energy   TEWEN  =       145.29194979
  -Hartree energ DENC   =      -637.46310041
  -exchange      EXHF   =         0.00000000
  -V(xc)+E(xc)   XCENC  =        42.13508256
  PAW double counting   =       992.46578979     -993.42408966
  entropy T*S    EENTRO =         0.00395056
  eigenvalues    EBANDS =      -166.06150921
  atomic energy  EATOM  =       593.94817731
  Solvation  Ediel_sol  =         0.00000000
  ---------------------------------------------------
  free energy    TOTEN  =       -22.29151702 eV

  energy without entropy =      -22.29546759  energy(sigma->0) =      -22.29250467


--------------------------------------------------------------------------------------------------------




----------------------------------------- Iteration    1(  13)  ---------------------------------------


    POTLOK:  cpu time    0.3040: real time    0.3055
    SETDIJ:  cpu time    0.0070: real time    0.0063
    EDDIAG:  cpu time    0.0400: real time    0.0391
  RMM-DIIS:  cpu time    0.1860: real time    0.1866
    ORTHCH:  cpu time    0.0020: real time    0.0021
       DOS:  cpu time    0.0000: real time    0.0003
    CHARGE:  cpu time    0.0580: real time    0.0577
    MIXING:  cpu time    0.0110: real time    0.0105
    --------------------------------------------
      LOOP:  cpu time    0.6089: real time    0.6105

 eigenvalue-minimisations  :    48
 total energy-change (2. order) :-0.6012429E-02  (-0.5194317E-03)
 number of electron      13.9999990 magnetization       0.0000000
 augmentation part       -0.8041098 magnetization      -0.0000021

 Broyden mixing:
  rms(total) = 0.23696E-01    rms(broyden)= 0.23687E-01
  rms(prec ) = 0.25005E-01
  weight for this iteration     100.00

 eigenvalues of (default mixing * dielectric matrix)
  average eigenvalue GAMMA=   1.4763
  3.4752  2.1631  2.1631  1.2771  1.1758  0.7004  0.4280  0.4280

 Free energy of the ion-electron system (eV)
  ---------------------------------------------------
  alpha Z        PSCENC =         0.81223224
  Ewald energy   TEWEN  =       145.29194979
  -Hartree energ DENC   =      -638.24378537
  -exchange      EXHF   =         0.00000000
  -V(xc)+E(xc)   XCENC  =        42.15718172
  PAW double counting   =       991.77248261     -992.72805056
  entropy T*S    EENTRO =         0.01240468
  eigenvalues    EBANDS =      -165.32012187
  atomic energy  EATOM  =       593.94817731
  Solvation  Ediel_sol  =         0.00000000
  ---------------------------------------------------
  free energy    TOTEN  =       -22.29752945 eV

  energy without entropy =      -22.30993413  energy(sigma->0) =      -22.30063062


--------------------------------------------------------------------------------------------------------




----------------------------------------- Iteration    1(  14)  ---------------------------------------


    POTLOK:  cpu time    0.3040: real time    0.3055
    SETDIJ:  cpu time    0.0070: real time    0.0063
    EDDIAG:  cpu time    0.0390: real time    0.0391
  RMM-DIIS:  cpu time    0.1800: real time    0.1808
    ORTHCH:  cpu time    0.0030: real time    0.0022
       DOS:  cpu time    0.0000: real time    0.0003
    CHARGE:  cpu time    0.0580: real time    0.0576
    MIXING:  cpu time    0.0100: real time    0.0107
    --------------------------------------------
      LOOP:  cpu time    0.6009: real time    0.6052

 eigenvalue-minimisations  :    42
 total energy-change (2. order) :-0.3289133E-02  (-0.6040219E-04)
 number of electron      13.9999990 magnetization       0.0000000
 augmentation part       -0.8041220 magnetization       0.0000001

 Broyden mixing:
  rms(total) = 0.15782E-01    rms(broyden)= 0.15782E-01
  rms(prec ) = 0.16696E-01
  weight for this iteration     100.00

 eigenvalues of (default mixing * dielectric matrix)
  average eigenvalue GAMMA=   1.4772
  3.9102  2.2117  2.2117  1.4067  1.2494  0.7057  0.7057  0.4469  0.4469

 Free energy of the ion-electron system (eV)
  ---------------------------------------------------
  alpha Z        PSCENC =         0.81223224
  Ewald energy   TEWEN  =       145.29194979
  -Hartree energ DENC   =      -638.45462968
  -exchange      EXHF   =         0.00000000
  -V(xc)+E(xc)   XCENC  =        42.15988165
  PAW double counting   =       991.10104978     -992.05573524
  entropy T*S    EENTRO =         0.01174165
  eigenvalues    EBANDS =      -165.11548608
  atomic energy  EATOM  =       593.94817731
  Solvation  Ediel_sol  =         0.00000000
  ---------------------------------------------------
  free energy    TOTEN  =       -22.30081859 eV

  energy without entropy =      -22.31256024  energy(sigma->0) =      -22.30375400


--------------------------------------------------------------------------------------------------------




----------------------------------------- Iteration    1(  15)  ---------------------------------------


    POTLOK:  cpu time    0.2960: real time    0.3275
    SETDIJ:  cpu time    0.0050: real time    0.0064
    EDDIAG:  cpu time    0.0390: real time    0.0444
  RMM-DIIS:  cpu time    0.1780: real time    0.1789
    ORTHCH:  cpu time    0.0020: real time    0.0020
       DOS:  cpu time    0.0010: real time    0.0003
    CHARGE:  cpu time    0.0550: real time    0.0577
    MIXING:  cpu time    0.0120: real time    0.0111
    --------------------------------------------
      LOOP:  cpu time    0.5889: real time    0.6310

 eigenvalue-minimisations  :    46
 total energy-change (2. order) :-0.2163037E-02  (-0.8334392E-04)
 number of electron      13.9999990 magnetization       0.0000000
 augmentation part       -0.8042260 magnetization       0.0000024

 Broyden mixing:
  rms(total) = 0.19059E-01    rms(broyden)= 0.19056E-01
  rms(prec ) = 0.19506E-01
  weight for this iteration     100.00

 eigenvalues of (default mixing * dielectric matrix)
  average eigenvalue GAMMA=   1.3728
  3.9711  2.2172  2.2172  1.4507  1.2439  0.6499  0.6499  0.4485  0.4485  0.4315

 Free energy of the ion-electron system (eV)
  ---------------------------------------------------
  alpha Z        PSCENC =         0.81223224
  Ewald energy   TEWEN  =       145.29194979
  -Hartree energ DENC   =      -638.51549433
  -exchange      EXHF   =         0.00000000
  -V(xc)+E(xc)   XCENC  =        42.15683842
  PAW double counting   =       990.57784003     -991.53185001
  entropy T*S    EENTRO =         0.00773100
  eigenvalues    EBANDS =      -165.05040606
  atomic energy  EATOM  =       593.94817731
  Solvation  Ediel_sol  =         0.00000000
  ---------------------------------------------------
  free energy    TOTEN  =       -22.30298162 eV

  energy without entropy =      -22.31071262  energy(sigma->0) =      -22.30491437


--------------------------------------------------------------------------------------------------------




----------------------------------------- Iteration    1(  16)  ---------------------------------------


    POTLOK:  cpu time    0.3010: real time    0.3020
    SETDIJ:  cpu time    0.0070: real time    0.0063
    EDDIAG:  cpu time    0.0390: real time    0.0392
  RMM-DIIS:  cpu time    0.1640: real time    0.1640
    ORTHCH:  cpu time    0.0020: real time    0.0022
       DOS:  cpu time    0.0010: real time    0.0003
    CHARGE:  cpu time    0.0570: real time    0.0577
    MIXING:  cpu time    0.0110: real time    0.0113
    --------------------------------------------
      LOOP:  cpu time    0.5829: real time    0.5858

 eigenvalue-minimisations  :    35
 total energy-change (2. order) :-0.8713725E-03  (-0.1228563E-04)
 number of electron      13.9999990 magnetization       0.0000000
 augmentation part       -0.8042383 magnetization       0.0000023

 Broyden mixing:
  rms(total) = 0.60906E-02    rms(broyden)= 0.60896E-02
  rms(prec ) = 0.79211E-02
  weight for this iteration     100.00

 eigenvalues of (default mixing * dielectric matrix)
  average eigenvalue GAMMA=   1.4623
  4.3834  2.3698  2.1989  1.8580  0.7771  1.2423  0.8582  0.7534  0.7534  0.4455
  0.4455

 Free energy of the ion-electron system (eV)
  ---------------------------------------------------
  alpha Z        PSCENC =         0.81223224
  Ewald energy   TEWEN  =       145.29194979
  -Hartree energ DENC   =      -638.51088037
  -exchange      EXHF   =         0.00000000
  -V(xc)+E(xc)   XCENC  =        42.15561522
  PAW double counting   =       990.82219500     -991.77615460
  entropy T*S    EENTRO =         0.00972671
  eigenvalues    EBANDS =      -165.05671430
  atomic energy  EATOM  =       593.94817731
  Solvation  Ediel_sol  =         0.00000000
  ---------------------------------------------------
  free energy    TOTEN  =       -22.30385300 eV

  energy without entropy =      -22.31357971  energy(sigma->0) =      -22.30628467


--------------------------------------------------------------------------------------------------------




----------------------------------------- Iteration    1(  17)  ---------------------------------------


    POTLOK:  cpu time    0.3020: real time    0.3038
    SETDIJ:  cpu time    0.0070: real time    0.0063
    EDDIAG:  cpu time    0.0390: real time    0.0390
  RMM-DIIS:  cpu time    0.1690: real time    0.1706
    ORTHCH:  cpu time    0.0020: real time    0.0021
       DOS:  cpu time    0.0010: real time    0.0003
    CHARGE:  cpu time    0.0560: real time    0.0574
    MIXING:  cpu time    0.0130: real time    0.0116
    --------------------------------------------
      LOOP:  cpu time    0.5909: real time    0.5938

 eigenvalue-minimisations  :    40
 total energy-change (2. order) :-0.4790382E-03  (-0.3303202E-04)
 number of electron      13.9999990 magnetization       0.0000000
 augmentation part       -0.8042711 magnetization       0.0000006

 Broyden mixing:
  rms(total) = 0.17360E-01    rms(broyden)= 0.17358E-01
  rms(prec ) = 0.17671E-01
  weight for this iteration     100.00

 eigenvalues of (default mixing * dielectric matrix)
  average eigenvalue GAMMA=   1.4611
  4.9496  2.4909  2.1627  1.9370  0.8984  1.2362  0.9140  0.9140  0.4469  0.4469
  0.5682  0.5682

 Free energy of the ion-electron system (eV)
  ---------------------------------------------------
  alpha Z        PSCENC =         0.81223224
  Ewald energy   TEWEN  =       145.29194979
  -Hartree energ DENC   =      -638.52844975
  -exchange      EXHF   =         0.00000000
  -V(xc)+E(xc)   XCENC  =        42.15404943
  PAW double counting   =       990.88490566     -991.83859498
  entropy T*S    EENTRO =         0.01189767
  eigenvalues    EBANDS =      -165.04049940
  atomic energy  EATOM  =       593.94817731
  Solvation  Ediel_sol  =         0.00000000
  ---------------------------------------------------
  free energy    TOTEN  =       -22.30433203 eV

  energy without entropy =      -22.31622971  energy(sigma->0) =      -22.30730645


--------------------------------------------------------------------------------------------------------




----------------------------------------- Iteration    1(  18)  ---------------------------------------


    POTLOK:  cpu time    0.3020: real time    0.3030
    SETDIJ:  cpu time    0.0080: real time    0.0063
    EDDIAG:  cpu time    0.0390: real time    0.0390
  RMM-DIIS:  cpu time    0.1690: real time    0.1701
    ORTHCH:  cpu time    0.0030: real time    0.0021
       DOS:  cpu time    0.0000: real time    0.0003
    CHARGE:  cpu time    0.0570: real time    0.0576
    MIXING:  cpu time    0.0120: real time    0.0120
    --------------------------------------------
      LOOP:  cpu time    0.5899: real time    0.5931

 eigenvalue-minimisations  :    36
 total energy-change (2. order) :-0.7091399E-03  (-0.1885339E-04)
 number of electron      13.9999990 magnetization       0.0000000
 augmentation part       -0.8042718 magnetization       0.0000062

 Broyden mixing:
  rms(total) = 0.49738E-02    rms(broyden)= 0.49709E-02
  rms(prec ) = 0.56274E-02
  weight for this iteration     100.00

 eigenvalues of (default mixing * dielectric matrix)
  average eigenvalue GAMMA=   1.5800
  5.9927  2.6672  2.3387  1.9560  0.9629  1.5006  1.2658  0.9800  0.4461  0.4461
  0.7319  0.6259  0.6259

 Free energy of the ion-electron system (eV)
  ---------------------------------------------------
  alpha Z        PSCENC =         0.81223224
  Ewald energy   TEWEN  =       145.29194979
  -Hartree energ DENC   =      -638.52426587
  -exchange      EXHF   =         0.00000000
  -V(xc)+E(xc)   XCENC  =        42.15328402
  PAW double counting   =       990.91986716     -991.87364731
  entropy T*S    EENTRO =         0.00962321
  eigenvalues    EBANDS =      -165.04226171
  atomic energy  EATOM  =       593.94817731
  Solvation  Ediel_sol  =         0.00000000
  ---------------------------------------------------
  free energy    TOTEN  =       -22.30504117 eV

  energy without entropy =      -22.31466438  energy(sigma->0) =      -22.30744698


--------------------------------------------------------------------------------------------------------




----------------------------------------- Iteration    1(  19)  ---------------------------------------


    POTLOK:  cpu time    0.3030: real time    0.3048
    SETDIJ:  cpu time    0.0070: real time    0.0063
    EDDIAG:  cpu time    0.0390: real time    0.0390
  RMM-DIIS:  cpu time    0.1620: real time    0.1617
    ORTHCH:  cpu time    0.0020: real time    0.0020
       DOS:  cpu time    0.0000: real time    0.0003
    CHARGE:  cpu time    0.0570: real time    0.0574
    MIXING:  cpu time    0.0130: real time    0.0125
    --------------------------------------------
      LOOP:  cpu time    0.5839: real time    0.5868

 eigenvalue-minimisations  :    34
 total energy-change (2. order) :-0.9438130E-03  (-0.1120284E-04)
 number of electron      13.9999990 magnetization       0.0000000
 augmentation part       -0.8042765 magnetization       0.0000025

 Broyden mixing:
  rms(total) = 0.17440E-02    rms(broyden)= 0.17430E-02
  rms(prec ) = 0.20542E-02
  weight for this iteration     100.00

 eigenvalues of (default mixing * dielectric matrix)
  average eigenvalue GAMMA=   1.6500
  6.6282  3.1351  0.9748  2.4320  1.9675  1.9675  1.2089  1.0072  1.0072  0.4463
  0.4463  0.6282  0.6282  0.6228

 Free energy of the ion-electron system (eV)
  ---------------------------------------------------
  alpha Z        PSCENC =         0.81223224
  Ewald energy   TEWEN  =       145.29194979
  -Hartree energ DENC   =      -638.49689884
  -exchange      EXHF   =         0.00000000
  -V(xc)+E(xc)   XCENC  =        42.15054715
  PAW double counting   =       991.28583526     -992.23980129
  entropy T*S    EENTRO =         0.00994777
  eigenvalues    EBANDS =      -165.06797437
  atomic energy  EATOM  =       593.94817731
  Solvation  Ediel_sol  =         0.00000000
  ---------------------------------------------------
  free energy    TOTEN  =       -22.30598499 eV

  energy without entropy =      -22.31593276  energy(sigma->0) =      -22.30847193


--------------------------------------------------------------------------------------------------------




----------------------------------------- Iteration    1(  20)  ---------------------------------------


    POTLOK:  cpu time    0.3040: real time    0.3044
    SETDIJ:  cpu time    0.0070: real time    0.0063
    EDDIAG:  cpu time    0.0390: real time    0.0390
  RMM-DIIS:  cpu time    0.1620: real time    0.1622
    ORTHCH:  cpu time    0.0020: real time    0.0020
       DOS:  cpu time    0.0000: real time    0.0003
    CHARGE:  cpu time    0.0580: real time    0.0573
    MIXING:  cpu time    0.0130: real time    0.0129
    --------------------------------------------
      LOOP:  cpu time    0.5849: real time    0.5868

 eigenvalue-minimisations  :    34
 total energy-change (2. order) :-0.3655771E-03  (-0.5619995E-05)
 number of electron      13.9999990 magnetization       0.0000000
 augmentation part       -0.8042873 magnetization       0.0000011

 Broyden mixing:
  rms(total) = 0.29719E-02    rms(broyden)= 0.29715E-02
  rms(prec ) = 0.31016E-02
  weight for this iteration     100.00

 eigenvalues of (default mixing * dielectric matrix)
  average eigenvalue GAMMA=   1.6977
  7.2744  3.7294  2.4991  2.0590  2.0590  0.9748  1.1736  1.1736  0.9916  0.4463
  0.4463  0.6996  0.6996  0.6362  0.6028

 Free energy of the ion-electron system (eV)
  ---------------------------------------------------
  alpha Z        PSCENC =         0.81223224
  Ewald energy   TEWEN  =       145.29194979
  -Hartree energ DENC   =      -638.48349576
  -exchange      EXHF   =         0.00000000
  -V(xc)+E(xc)   XCENC  =        42.14925288
  PAW double counting   =       991.32075671     -992.27472664
  entropy T*S    EENTRO =         0.01045287
  eigenvalues    EBANDS =      -165.08094996
  atomic energy  EATOM  =       593.94817731
  Solvation  Ediel_sol  =         0.00000000
  ---------------------------------------------------
  free energy    TOTEN  =       -22.30635056 eV

  energy without entropy =      -22.31680343  energy(sigma->0) =      -22.30896378


--------------------------------------------------------------------------------------------------------




----------------------------------------- Iteration    1(  21)  ---------------------------------------


    POTLOK:  cpu time    0.3020: real time    0.3030
    SETDIJ:  cpu time    0.0070: real time    0.0069
    EDDIAG:  cpu time    0.0380: real time    0.0384
  RMM-DIIS:  cpu time    0.1600: real time    0.1593
    ORTHCH:  cpu time    0.0020: real time    0.0023
       DOS:  cpu time    0.0000: real time    0.0003
    CHARGE:  cpu time    0.0570: real time    0.0563
    MIXING:  cpu time    0.0130: real time    0.0132
    --------------------------------------------
      LOOP:  cpu time    0.5789: real time    0.5823

 eigenvalue-minimisations  :    29
 total energy-change (2. order) :-0.1247867E-03  (-0.1918618E-05)
 number of electron      13.9999990 magnetization       0.0000000
 augmentation part       -0.8042899 magnetization       0.0000009

 Broyden mixing:
  rms(total) = 0.55489E-03    rms(broyden)= 0.55437E-03
  rms(prec ) = 0.66855E-03
  weight for this iteration     100.00

 eigenvalues of (default mixing * dielectric matrix)
  average eigenvalue GAMMA=   1.7261
  7.6773  3.9559  2.6039  2.1276  2.1276  0.9742  1.3045  1.3045  1.0130  1.0130
  0.4463  0.4463  0.7181  0.6240  0.6240  0.6573

 Free energy of the ion-electron system (eV)
  ---------------------------------------------------
  alpha Z        PSCENC =         0.81223224
  Ewald energy   TEWEN  =       145.29194979
  -Hartree energ DENC   =      -638.48102226
  -exchange      EXHF   =         0.00000000
  -V(xc)+E(xc)   XCENC  =        42.14903256
  PAW double counting   =       991.24782359     -992.20178579
  entropy T*S    EENTRO =         0.01009074
  eigenvalues    EBANDS =      -165.08297354
  atomic energy  EATOM  =       593.94817731
  Solvation  Ediel_sol  =         0.00000000
  ---------------------------------------------------
  free energy    TOTEN  =       -22.30647535 eV

  energy without entropy =      -22.31656609  energy(sigma->0) =      -22.30899804


--------------------------------------------------------------------------------------------------------




----------------------------------------- Iteration    1(  22)  ---------------------------------------


    POTLOK:  cpu time    0.3030: real time    0.3040
    SETDIJ:  cpu time    0.0070: real time    0.0067
    EDDIAG:  cpu time    0.0390: real time    0.0390
  RMM-DIIS:  cpu time    0.1600: real time    0.1614
    ORTHCH:  cpu time    0.0030: real time    0.0027
       DOS:  cpu time    0.0000: real time    0.0003
    --------------------------------------------
      LOOP:  cpu time    0.5129: real time    0.5170

 eigenvalue-minimisations  :    31
 total energy-change (2. order) :-0.7527830E-04  (-0.1335962E-05)
 number of electron      13.9999990 magnetization       0.0000000
 augmentation part       -0.8042899 magnetization       0.0000009

 Free energy of the ion-electron system (eV)
  ---------------------------------------------------
  alpha Z        PSCENC =         0.81223224
  Ewald energy   TEWEN  =       145.29194979
  -Hartree energ DENC   =      -638.47959606
  -exchange      EXHF   =         0.00000000
  -V(xc)+E(xc)   XCENC  =        42.14895879
  PAW double counting   =       991.16678939     -992.12072967
  entropy T*S    EENTRO =         0.01009979
  eigenvalues    EBANDS =      -165.08443221
  atomic energy  EATOM  =       593.94817731
  Solvation  Ediel_sol  =         0.00000000
  ---------------------------------------------------
  free energy    TOTEN  =       -22.30655063 eV

  energy without entropy =      -22.31665042  energy(sigma->0) =      -22.30907558


--------------------------------------------------------------------------------------------------------




 average (electrostatic) potential at core
  the test charge radii are     0.6991  0.9406  0.5201
  (the norm of the test charge is              1.0000)
       1 -59.8513       2-100.3371       3 -42.1917       4 -42.1927       5 -42.1924
 
 
 
 E-fermi :  -6.6776     XC(G=0):  -0.9448     alpha+bet : -0.3713


 spin component 1

 k-point     1 :       0.0000    0.0000    0.0000
  band No.  band energies     occupation 
      1     -21.1395      1.00000
      2     -16.4632      1.00000
      3     -10.6674      1.00000
      4     -10.6482      1.00000
      5     -10.0824      1.00000
      6      -6.8052      1.03105
      7      -6.7340      0.96895
      8      -0.5376      0.00000
      9      -0.1251      0.00000
     10       0.9675      0.00000
     11       0.9876      0.00000
     12       1.0284      0.00000

 spin component 2

 k-point     1 :       0.0000    0.0000    0.0000
  band No.  band energies     occupation 
      1     -21.1395      1.00000
      2     -16.4632      1.00000
      3     -10.6678      1.00000
      4     -10.6478      1.00000
      5     -10.0825      1.00000
      6      -6.8056      1.03022
      7      -6.7336      0.96978
      8      -0.5376      0.00000
      9      -0.1253      0.00000
     10       0.9624      0.00000
     11       0.9933      0.00000
     12       1.0287      0.00000


--------------------------------------------------------------------------------------------------------


 soft charge-density along one line, spin component           1
         0         1         2         3         4         5         6         7         8         9
 total charge-density along one line
 
 soft charge-density along one line, spin component           2
         0         1         2         3         4         5         6         7         8         9
 total charge-density along one line
 
 pseudopotential strength for first ion, spin component:           1
 10.295  13.693  -0.000  -0.000   0.005   0.000   0.000  -0.015
 13.693  18.211  -0.000  -0.000   0.007   0.000   0.000  -0.020
 -0.000  -0.000  -4.442   0.000  -0.000   8.698  -0.001  -0.000
 -0.000  -0.000   0.000  -4.442  -0.000  -0.001   8.698   0.000
  0.005   0.007  -0.000  -0.000  -4.452  -0.000   0.000   8.719
  0.000   0.000   8.698  -0.001  -0.000 -19.173   0.001   0.000
  0.000   0.000  -0.001   8.698   0.000   0.001 -19.173  -0.000
 -0.015  -0.020  -0.000   0.000   8.719   0.000  -0.000 -19.221
 pseudopotential strength for first ion, spin component:           2
 10.295  13.693   0.000   0.000   0.005  -0.000  -0.000  -0.015
 13.693  18.211   0.000   0.000   0.007  -0.000  -0.000  -0.020
  0.000   0.000  -4.442  -0.000   0.000   8.698   0.001  -0.000
  0.000   0.000  -0.000  -4.442   0.000   0.001   8.698  -0.000
  0.005   0.007   0.000   0.000  -4.452  -0.000  -0.000   8.719
 -0.000  -0.000   8.698   0.001  -0.000 -19.173  -0.001   0.000
 -0.000  -0.000   0.001   8.698  -0.000  -0.001 -19.173   0.000
 -0.015  -0.020  -0.000  -0.000   8.719   0.000   0.000 -19.221
 total augmentation occupancy for first ion, spin component:           1
  5.687  -2.165   0.002  -0.004  -0.057   0.000  -0.000  -0.003
 -2.165   0.856  -0.001   0.003  -0.073  -0.000   0.000  -0.013
  0.002  -0.001   1.832  -0.000  -0.000   0.190  -0.000  -0.000
 -0.004   0.003  -0.000   1.833  -0.000  -0.000   0.190  -0.000
 -0.057  -0.073  -0.000  -0.000   1.338  -0.000   0.000   0.148
  0.000  -0.000   0.190  -0.000  -0.000   0.020  -0.000  -0.000
 -0.000   0.000  -0.000   0.190   0.000  -0.000   0.020  -0.000
 -0.003  -0.013  -0.000  -0.000   0.148  -0.000  -0.000   0.017
 total augmentation occupancy for first ion, spin component:           2
  0.000  -0.000   0.000   0.001  -0.000   0.000   0.000  -0.000
 -0.000   0.000  -0.000  -0.001   0.000  -0.000  -0.000   0.000
  0.000  -0.000   0.000  -0.006   0.000   0.000  -0.000  -0.000
  0.001  -0.001  -0.006  -0.000   0.000  -0.000  -0.000  -0.000
 -0.000   0.000   0.000   0.000   0.000  -0.000  -0.000  -0.000
  0.000  -0.000   0.000  -0.000  -0.000   0.000  -0.000  -0.000
  0.000  -0.000  -0.000  -0.000  -0.000  -0.000  -0.000  -0.000
 -0.000   0.000  -0.000  -0.000  -0.000  -0.000  -0.000  -0.000


------------------------ aborting loop because EDIFF is reached ----------------------------------------



 DIPCOR: dipole corrections for dipol
 direction  3 min pos   109,
 dipolmoment           0.000000      0.000000      0.000080 electrons x Angstroem
 Tr[quadrupol]      -531.079987

 energy correction for charged system         0.000000 eV
 dipol+quadrupol energy correction            0.000000 eV
 added-field ion interaction          0.000000 eV  (added to PSCEN)

 
  *************** adding dipol energy to TOTEN NOW **************** 
 


 total charge     
 
# of ion     s       p       d       tot
----------------------------------------
  1        0.827   1.745   0.000   2.573
  2        1.597   3.530   0.000   5.127
  3        0.653   0.040   0.000   0.692
  4        0.653   0.039   0.000   0.692
  5        0.653   0.039   0.000   0.692
------------------------------------------------
tot        4.382   5.393   0.000   9.776
 


 magnetization (x)
 
# of ion     s       p       d       tot
----------------------------------------
  1       -0.000  -0.000   0.000  -0.000
  2        0.000  -0.000   0.000  -0.000
  3        0.002   0.000   0.000   0.002
  4       -0.003  -0.000   0.000  -0.003
  5        0.001   0.000   0.000   0.001
------------------------------------------------
tot        0.000  -0.000   0.000  -0.000
 
    CHARGE:  cpu time    0.0560: real time    0.0564
    FORLOC:  cpu time    0.0090: real time    0.0091
    FORNL :  cpu time    0.0740: real time    0.0732
    STRESS:  cpu time    0.2130: real time    0.2135
    FORCOR:  cpu time    0.2870: real time    0.2865
    FORHAR:  cpu time    0.0390: real time    0.0396
    MIXING:  cpu time    0.0140: real time    0.0139
    OFIELD:  cpu time    0.0000: real time    0.0001

  FORCE on cell =-STRESS in cart. coord.  units (eV):
  Direction    XX          YY          ZZ          XY          YZ          ZX
  --------------------------------------------------------------------------------------
  Alpha Z     0.81223     0.81223     0.81223
  Ewald     225.27490   -39.99206   -39.99102     0.03138    -0.00030     0.00623
  Hartree   321.73748   158.36962   158.36347     0.02304    -0.01007     0.00319
  E(xc)     -49.80724   -50.24421   -50.24399    -0.00001     0.00008    -0.00000
  Local    -742.92698  -334.87293  -334.85159    -0.05245     0.03611    -0.00815
  n-local    70.57940    69.83576    69.83155     0.00008    -0.00567     0.00041
  augment   -18.57132   -20.08927   -20.08881     0.00012     0.00145    -0.00008
  Kinetic   191.88669   214.57966   214.55782     0.00172    -0.01523    -0.00032
  Fock        0.00000     0.00000     0.00000     0.00000     0.00000     0.00000
  -------------------------------------------------------------------------------------
  Total      -1.01484    -1.60120    -1.61035     0.00390     0.00636     0.00128
  in kB      -1.62595    -2.56541    -2.58006     0.00624     0.01020     0.00205
  external pressure =       -2.26 kB  Pullay stress =        0.00 kB


 VOLUME and BASIS-vectors are now :
 -----------------------------------------------------------------------------
  energy-cutoff  :      300.00
  volume of cell :     1000.00
      direct lattice vectors                 reciprocal lattice vectors
    10.000000000  0.000000000  0.000000000     0.100000000  0.000000000  0.000000000
     0.000000000 10.000000000  0.000000000     0.000000000  0.100000000  0.000000000
     0.000000000  0.000000000 10.000000000     0.000000000  0.000000000  0.100000000

  length of vectors
    10.000000000 10.000000000 10.000000000     0.100000000  0.100000000  0.100000000


 FORCES acting on ions
    electron-ion (+dipol)            ewald-force                    non-local-force                 convergence-correction
[...]
  Local    -742.88314  -334.18589  -335.51317    -0.11389     1.40815    -0.37698
  n-local    70.58193    69.71404    69.96295    -0.00017    -0.09432     0.00100
  augment   -18.57125   -20.08293   -20.09513    -0.00000     0.05406    -0.00004
  Kinetic   191.87731   214.43764   214.67366    -0.01032    -0.42665    -0.06606
  Fock        0.00000     0.00000     0.00000     0.00000     0.00000     0.00000
  -------------------------------------------------------------------------------------
  Total      -1.01898    -1.44829    -1.77934    -0.00881     0.01978    -0.01611
  in kB      -1.63259    -2.32041    -2.85082    -0.01411     0.03168    -0.02581
  external pressure =       -2.27 kB  Pullay stress =        0.00 kB


 VOLUME and BASIS-vectors are now :
 -----------------------------------------------------------------------------
  energy-cutoff  :      300.00
  volume of cell :     1000.00
      direct lattice vectors                 reciprocal lattice vectors
    10.000000000  0.000000000  0.000000000     0.100000000  0.000000000  0.000000000
     0.000000000 10.000000000  0.000000000     0.000000000  0.100000000  0.000000000
     0.000000000  0.000000000 10.000000000     0.000000000  0.000000000  0.100000000

  length of vectors
    10.000000000 10.000000000 10.000000000     0.100000000  0.100000000  0.100000000


 FORCES acting on ions
    electron-ion (+dipol)            ewald-force                    non-local-force                 convergence-correction
 -----------------------------------------------------------------------------------------------
   0.731E+02 -.129E+00 -.361E+00   -.788E+02 0.965E-01 0.437E+00   0.561E+01 -.226E-01 -.837E-01   -.586E-03 0.500E-01 0.119E-01
   -.164E+03 -.224E-01 -.791E-01   0.172E+03 0.247E-01 0.774E-01   -.777E+01 -.721E-02 -.521E-02   0.220E-02 0.382E-02 -.168E-02
   0.290E+02 0.243E+02 -.492E+02   -.310E+02 -.268E+02 0.543E+02   0.187E+01 0.238E+01 -.481E+01   -.142E-02 -.942E-03 -.355E-02
   0.290E+02 0.305E+02 0.457E+02   -.310E+02 -.336E+02 -.504E+02   0.188E+01 0.297E+01 0.445E+01   -.239E-02 -.147E-02 0.290E-02
   0.290E+02 -.547E+02 0.403E+01   -.310E+02 0.603E+02 -.443E+01   0.187E+01 -.533E+01 0.401E+00   0.373E-02 0.499E-02 0.726E-02
 -----------------------------------------------------------------------------------------------
   -.346E+01 -.549E-01 0.233E-01   -.462E-13 -.142E-13 -.266E-14   0.346E+01 -.979E-02 -.400E-01   0.153E-02 0.564E-01 0.168E-01
 
 
 POSITION                                       TOTAL-FORCE (eV/Angst)
 -----------------------------------------------------------------------------------
      4.29503      4.77134      4.96668        -0.071679     -0.003086      0.003874
      6.06200      4.77134      4.96668         0.287981      0.000520     -0.008581
      3.93800      4.31404      5.89204        -0.080723     -0.103301      0.249518
      3.93800      4.19862      4.10796        -0.061883     -0.174590     -0.249626
      3.93800      5.80138      4.89004        -0.073697      0.280457      0.004815
 -----------------------------------------------------------------------------------
    total drift:                                0.000701     -0.008290      0.000025


--------------------------------------------------------------------------------------------------------



  FREE ENERGIE OF THE ION-ELECTRON SYSTEM (eV)
  ---------------------------------------------------
  free  energy   TOTEN  =       -21.66055159 eV

  energy  without entropy=      -21.67047506  energy(sigma->0) =      -21.66303246
 
 d Force = 0.5328577E-03[-0.963E-04, 0.116E-02]  d Energy =-0.6432439E+00 0.644E+00
 d Force = 0.7819549E-01[ 0.886E-01, 0.678E-01]  d Ewald  = 0.7821054E-01-0.150E-04


--------------------------------------------------------------------------------------------------------


    POTLOK:  cpu time    0.3150: real time    0.3145


--------------------------------------------------------------------------------------------------------


 stress matrix after NEB project (eV)
     -1.01898     -0.00881     -0.01611
     -0.00881     -1.44829      0.01978
     -0.01611      0.01978     -1.77934
  FORCES: max atom, RMS     0.310845    0.263951
  FORCE total and by dimension    0.590212    0.287981
  Stress total and by dimension    2.510651    1.779339
 Finite differences progress:
  Degree of freedom:  15/ 15
  Displacement:        2/  2
  Total:              30/ 30
 
 SECOND DERIVATIVES (NOT SYMMETRIZED)
 ------------------------------------
               1X          1Y          1Z          2X          2Y          2Z          3X          3Y          3Z          4X          4Y          4Z          5X          5Y          5Z 
  1X   -31.312280   -0.286590   -0.970630   14.551330    0.064707    0.168296    5.584579    3.380194   -6.376110    5.587324    4.159405    6.406537    5.589048   -7.317716    0.771907
  1Y     0.159029  -49.647360   -4.907499   -0.110119    2.694974    0.810434    3.340557    8.539877   -8.073594    4.309748   10.917201   12.168500   -7.699215   27.495309    0.002160
  1Z     0.156392    3.741823  -49.518538   -0.148419   -0.676892    2.651846   -6.859843  -10.567593   22.679464    6.399892    9.880283   20.266406    0.451977   -2.377622    3.920821
  2X    15.022161   -0.033092    0.817827  -21.565846    0.037156   -0.021901    2.325361    0.065227   -0.110830    2.017942   -0.359648   -0.626460    2.200382    0.290356   -0.058637
  2Y    -0.196566    0.810978   -0.555821    0.524445   -0.358300    0.046107    0.774759    0.091545    0.441264    1.122254   -0.034292   -0.146105   -2.224892   -0.509931    0.214555
  2Z     0.085742    2.054449    2.642764   -0.052239   -1.543418   -2.917609   -1.776208    0.097711   -0.216484    1.654444   -0.623242   -0.037732    0.088261    0.014500    0.529061
  3X     5.682601    3.223468   -3.114707    2.192716    0.885051   -2.478425   -6.946571   -3.323331    5.867216   -0.529590   -0.339143   -0.127050   -0.399156   -0.446044   -0.147035
  3Y     3.243676    6.379694   -6.551990   -0.108151    0.207452   -0.201591   -3.321864   -8.005121    9.020129   -0.652606    0.034285    0.810954    0.838945    1.383689   -3.077503
  3Z    -6.635544   -6.057577   21.057804    0.066438   -0.364970   -0.196152    7.133105    9.111481  -23.836696   -0.618611   -2.068914    2.383751    0.054613   -0.620020    0.591293
  4X     5.718767    3.226425    4.676012    2.293767    1.312692    1.879825   -0.591968   -0.358197   -0.142167   -7.002953   -3.922988   -5.991825   -0.417613   -0.257931   -0.421844
  4Y     4.080107    7.577719    9.247791   -0.497246    0.369642   -0.083721   -0.459907    0.546012   -1.032136   -4.019395  -10.208582  -10.662926    0.896441    1.715208    2.530992
  4Z     5.986755    8.780594   19.733551   -0.205599    0.041380   -0.376219    0.789112    2.014822    1.616028   -6.359956  -10.848523  -20.797241   -0.210312    0.011728   -0.176120
  5X     5.803803   -1.703301   -1.733670    1.912376   -2.967681    0.470341   -0.507725   -0.573791    0.161312   -0.363769   -0.497457    0.948910   -6.844685    5.742230    0.153108
  5Y    -7.338036   19.855767   -8.329242    0.253661    0.688647    1.190512   -0.344405    3.436718    2.271800   -0.386904    3.104425    1.035261    7.815684  -27.085557    3.831669
  5Z     0.471430    2.807698    1.704513   -0.020342   -0.665734    0.387281    0.842648   -3.509313    0.510360   -0.849438    0.827811    0.543621   -0.444297    0.539538   -3.145775
 
 
 Eigenvectors and eigenvalues of the dynamical matrix
 ----------------------------------------------------
 
 
   1 f  =   90.582252 THz   569.145076 2PiTHz 3021.498607 cm-1   374.618217 meV
             X         Y         Z           dx          dy          dz
      4.295030  4.771345  4.966680     0.028238   -0.076476    0.295632  
      6.062000  4.771345  4.966680    -0.002356   -0.000586   -0.000218  
      3.938000  4.314035  5.892040     0.184798    0.245865   -0.557427  
      3.938000  4.198615  4.107960    -0.164783   -0.336764   -0.441068  
      3.938000  5.801385  4.900040    -0.093436    0.395623    0.016501  
 
   2 f  =   88.013476 THz   553.004978 2PiTHz 2935.813452 cm-1   363.994608 meV
             X         Y         Z           dx          dy          dz
      4.295030  4.771345  4.966680     0.137674    0.105954   -0.013436  
      6.062000  4.771345  4.966680     0.000245    0.001003   -0.001908  
      3.938000  4.314035  5.892040    -0.213268   -0.283264    0.618736  
      3.938000  4.198615  4.107960    -0.191058   -0.294192   -0.522357  
      3.938000  5.801385  4.900040    -0.067573    0.241760   -0.046436  
 
   3 f  =   87.267733 THz   548.319341 2PiTHz 2910.938166 cm-1   360.910465 meV
             X         Y         Z           dx          dy          dz
      4.295030  4.771345  4.966680    -0.044298    0.261713    0.092272  
      6.062000  4.771345  4.966680    -0.000444    0.004100    0.001896  
      3.938000  4.314035  5.892040     0.024769    0.134161   -0.070821  
      3.938000  4.198615  4.107960    -0.144209   -0.187835   -0.376441  
      3.938000  5.801385  4.900040     0.245527   -0.795098    0.084444  
 
   4 f  =   42.878933 THz   269.416284 2PiTHz 1430.287216 cm-1   177.333078 meV
             X         Y         Z           dx          dy          dz
      4.295030  4.771345  4.966680     0.029949    0.279205    0.126761  
      6.062000  4.771345  4.966680     0.010739    0.018094    0.008300  
      3.938000  4.314035  5.892040    -0.065928   -0.596956   -0.324701  
      3.938000  4.198615  4.107960    -0.348746   -0.045994    0.206219  
      3.938000  5.801385  4.900040     0.169284    0.007548   -0.493411  
 
   5 f  =   40.656304 THz   255.451095 2PiTHz 1356.148300 cm-1   168.141020 meV
             X         Y         Z           dx          dy          dz
      4.295030  4.771345  4.966680    -0.294570   -0.052655    0.113391  
      6.062000  4.771345  4.966680    -0.049866    0.008355    0.011619  
      3.938000  4.314035  5.892040     0.553117   -0.116866    0.175957  
      3.938000  4.198615  4.107960     0.344168    0.184101   -0.253846  
      3.938000  5.801385  4.900040     0.490576    0.131937   -0.263621  
 
   6 f  =   37.013340 THz   232.561673 2PiTHz 1234.632084 cm-1   153.074924 meV
             X         Y         Z           dx          dy          dz
      4.295030  4.771345  4.966680     0.136473   -0.115008    0.097532  
      6.062000  4.771345  4.966680     0.024186   -0.032848    0.055063  
      3.938000  4.314035  5.892040     0.293500    0.105650    0.107465  
      3.938000  4.198615  4.107960    -0.379467    0.566237   -0.206855  
      3.938000  5.801385  4.900040    -0.468710   -0.160778   -0.303545  
 
   7 f  =   31.467413 THz   197.715590 2PiTHz 1049.639896 cm-1   130.138808 meV
             X         Y         Z           dx          dy          dz
      4.295030  4.771345  4.966680    -0.070969    0.444805   -0.175923  
      6.062000  4.771345  4.966680    -0.015744   -0.098878    0.017762  
      3.938000  4.314035  5.892040     0.450639   -0.184244   -0.013377  
      3.938000  4.198615  4.107960     0.323747   -0.305035    0.065838  
      3.938000  5.801385  4.900040    -0.557369   -0.075807    0.004762  
 
   8 f  =   30.371202 THz   190.827893 2PiTHz 1013.074235 cm-1   125.605242 meV
             X         Y         Z           dx          dy          dz
      4.295030  4.771345  4.966680     0.027729    0.142982    0.400237  
      6.062000  4.771345  4.966680     0.005815   -0.041974   -0.101525  
      3.938000  4.314035  5.892040    -0.485697   -0.033878   -0.126597  
      3.938000  4.198615  4.107960     0.584813    0.239288   -0.234983  
      3.938000  5.801385  4.900040    -0.203426   -0.056979   -0.233040  
 
   9 f  =   21.760272 THz   136.723819 2PiTHz  725.844512 cm-1    89.993282 meV
             X         Y         Z           dx          dy          dz
      4.295030  4.771345  4.966680     0.786407    0.005344   -0.014521  
      6.062000  4.771345  4.966680    -0.551154    0.010154    0.000497  
      3.938000  4.314035  5.892040     0.156971   -0.001809   -0.026717  
      3.938000  4.198615  4.107960     0.161213   -0.007798    0.026519  
      3.938000  5.801385  4.900040     0.155630   -0.029900   -0.014989  
 
  10 f  =    3.166150 THz    19.893510 2PiTHz  105.611407 cm-1    13.094150 meV
             X         Y         Z           dx          dy          dz
      4.295030  4.771345  4.966680     0.023962   -0.156781   -0.126001  
      6.062000  4.771345  4.966680     0.051650    0.116076    0.939636  
      3.938000  4.314035  5.892040    -0.091048   -0.065855   -0.083285  
      3.938000  4.198615  4.107960     0.134601   -0.053868   -0.086416  
      3.938000  5.801385  4.900040    -0.025583   -0.059272   -0.087715  
 
  11 f/i=    0.470136 THz     2.953949 2PiTHz   15.682037 cm-1     1.944325 meV
             X         Y         Z           dx          dy          dz
      4.295030  4.771345  4.966680     0.490384    0.041851   -0.108456  
      6.062000  4.771345  4.966680     0.822511    0.045462   -0.081906  
      3.938000  4.314035  5.892040     0.126891    0.021260   -0.033072  
      3.938000  4.198615  4.107960     0.142358    0.005490   -0.026920  
      3.938000  5.801385  4.900040     0.142537    0.009279   -0.040475  
 
  12 f/i=    2.614557 THz    16.427744 2PiTHz   87.212218 cm-1    10.812941 meV
             X         Y         Z           dx          dy          dz
      4.295030  4.771345  4.966680     0.002056    0.291328    0.355632  
      6.062000  4.771345  4.966680     0.004700    0.828171    0.060670  
      3.938000  4.314035  5.892040     0.078092    0.140199    0.162217  
      3.938000  4.198615  4.107960    -0.042928    0.016922    0.172895  
      3.938000  5.801385  4.900040    -0.035270    0.073815    0.091082  
 
  13 f/i=    4.484478 THz    28.176806 2PiTHz  149.586078 cm-1    18.546317 meV
             X         Y         Z           dx          dy          dz
      4.295030  4.771345  4.966680    -0.066291   -0.207225   -0.580521  
      6.062000  4.771345  4.966680    -0.088395    0.517233   -0.262723  
      3.938000  4.314035  5.892040    -0.072254   -0.231209   -0.275719  
      3.938000  4.198615  4.107960     0.090588    0.107727   -0.324377  
      3.938000  5.801385  4.900040    -0.082991   -0.063199   -0.026056  
 
  14 f/i=    7.436577 THz    46.725390 2PiTHz  248.057493 cm-1    30.755220 meV
             X         Y         Z           dx          dy          dz
      4.295030  4.771345  4.966680    -0.035998    0.639209   -0.408841  
      6.062000  4.771345  4.966680    -0.070694   -0.090580    0.104989  
      3.938000  4.314035  5.892040    -0.141212    0.404142   -0.061870  
      3.938000  4.198615  4.107960    -0.083815    0.266088   -0.106895  
      3.938000  5.801385  4.900040     0.173165    0.277282   -0.124564  
 
  15 f/i=    9.248094 THz    58.107490 2PiTHz  308.483211 cm-1    38.247057 meV
             X         Y         Z           dx          dy          dz
      4.295030  4.771345  4.966680     0.031710    0.198543    0.125898  
      6.062000  4.771345  4.966680     0.027002   -0.098593    0.113058  
      3.938000  4.314035  5.892040     0.063712   -0.428727   -0.149573  
      3.938000  4.198615  4.107960    -0.056666    0.414891   -0.161723  
      3.938000  5.801385  4.900040     0.045357    0.098618    0.704963  
 
 Finite differences POTIM=  1.000000000000000E-002
  LATTYP: Found a simple cubic cell.
 ALAT       =    10.0000000000
  
  Lattice vectors:
  
 A1 = (  10.0000000000,   0.0000000000,   0.0000000000)
 A2 = (   0.0000000000,  10.0000000000,   0.0000000000)
 A3 = (   0.0000000000,   0.0000000000,  10.0000000000)


Analysis of symmetry for initial positions (statically):
=====================================================================
 Subroutine PRICEL returns:
 Original cell was already a primitive cell.
 

 Routine SETGRP: Setting up the symmetry group for a 
 simple cubic supercell.


 Subroutine GETGRP returns: Found  1 space group operations
 (whereof  1 operations were pure point group operations)
 out of a pool of 48 trial point group operations.


The static configuration has the point symmetry C_1 .


Analysis of symmetry for dynamics (positions and initial velocities):
=====================================================================
 Subroutine PRICEL returns:
 Original cell was already a primitive cell.
 

 Routine SETGRP: Setting up the symmetry group for a 
 simple cubic supercell.


 Subroutine GETGRP returns: Found  1 space group operations
 (whereof  1 operations were pure point group operations)
 out of a pool of 48 trial point group operations.


The dynamic configuration has the point symmetry C_1 .


Analysis of magnetic symmetry:
=====================================================================
 Subroutine PRICEL returns:
 Original cell was already a primitive cell.
 

 Subroutine MAGSYM returns: Found  1 space group operations
 (whereof  1 operations were pure point group operations)
 out of a pool of  1 trial space group operations
 (whereof  1 operations were pure point group operations)
 and found also     1 'primitive' translations


The magnetic configuration has the point symmetry C_1 .
 
 KPOINTS: KPOINTS created by Atomic Simulation Env

Automatic generation of k-mesh.
Space group operators:
 irot       det(A)        alpha          n_x          n_y          n_z        tau_x        tau_y        tau_z
    1     1.000000     0.000000     1.000000     0.000000     0.000000     0.000000     0.000000     0.000000
 
 Subroutine IBZKPT returns following result:
 ===========================================
 
 Found      1 irreducible k-points:
 
 Following reciprocal coordinates:
            Coordinates               Weight
  0.000000  0.000000  0.000000      1.000000
 
 Following cartesian coordinates:
            Coordinates               Weight
  0.000000  0.000000  0.000000      1.000000
 
     LOOP+:  cpu time    3.9434: real time    3.9636
    4ORBIT:  cpu time    0.0000: real time    0.0000
 


 total charge     
 
# of ion     s       p       d       tot
----------------------------------------
  1        0.827   1.745   0.000   2.572
  2        1.597   3.530   0.000   5.127
  3        0.653   0.040   0.000   0.693
  4        0.652   0.040   0.000   0.692
  5        0.652   0.039   0.000   0.691
------------------------------------------------
tot        4.382   5.393   0.000   9.775
 


 magnetization (x)
 
# of ion     s       p       d       tot
----------------------------------------
  1       -0.000  -0.000   0.000  -0.000
  2       -0.000   0.000   0.000   0.000
  3        0.002   0.000   0.000   0.002
  4       -0.003  -0.000   0.000  -0.003
  5        0.001   0.000   0.000   0.001
------------------------------------------------
tot       -0.000   0.000   0.000  -0.000
 

 total amount of memory used by VASP on root node    61864. kBytes
========================================================================

   base      :      30000. kBytes
   nonlr-proj:       1173. kBytes
   fftplans  :       4935. kBytes
   grid      :      25349. kBytes
   one-center:         30. kBytes
   wavefun   :        377. kBytes
 
  
  
 General timing and accounting informations for this job:
 ========================================================
  
                  Total CPU time used (sec):      143.950
                            User time (sec):      133.095
                          System time (sec):       10.855
                         Elapsed time (sec):      145.353
  
                   Maximum memory used (kb):      100132.
                   Average memory used (kb):           0.
  
                          Minor page faults:       935705
                          Major page faults:           10
                 Voluntary context switches:         2824
