PROCAR lm decomposed
# of k-points:    1         # of bands:  12         # of ions:   5

 k-point    1 :    0.00000000 0.00000000 0.00000000     weight = 1.00000000

band   1 # energy  -21.13954710 # occ.  1.00000000
 
ion      s     py     pz     px    dxy    dyz    dz2    dxz    dx2    tot
  1  0.128  0.000  0.000  0.015  0.000  0.000  0.000  0.000  0.000  0.143
  2  0.572  0.000  0.000  0.026  0.000  0.000  0.000  0.000  0.000  0.598
  3  0.011  0.000  0.001  0.000  0.000  0.000  0.000  0.000  0.000  0.013
  4  0.012  0.000  0.001  0.000  0.000  0.000  0.000  0.000  0.000  0.013
  5  0.011  0.001  0.000  0.000  0.000  0.000  0.000  0.000  0.000  0.013
tot  0.735  0.001  0.001  0.042  0.000  0.000  0.000  0.000  0.000  0.780
 
band   2 # energy  -16.46241000 # occ.  1.00000000
 
ion      s     py     pz     px    dxy    dyz    dz2    dxz    dx2    tot
  1  0.285  0.000  0.000  0.019  0.000  0.000  0.000  0.000  0.000  0.305
  2  0.204  0.000  0.000  0.026  0.000  0.000  0.000  0.000  0.000  0.230
  3  0.066  0.001  0.004  0.000  0.000  0.000  0.000  0.000  0.000  0.072
  4  0.067  0.002  0.004  0.000  0.000  0.000  0.000  0.000  0.000  0.073
  5  0.066  0.005  0.000  0.000  0.000  0.000  0.000  0.000  0.000  0.072
tot  0.688  0.008  0.008  0.046  0.000  0.000  0.000  0.000  0.000  0.751
 
band   3 # energy  -10.67630802 # occ.  1.00000000
 
ion      s     py     pz     px    dxy    dyz    dz2    dxz    dx2    tot
  1  0.000  0.105  0.181  0.000  0.000  0.000  0.000  0.000  0.000  0.286
  2  0.000  0.028  0.047  0.000  0.000  0.000  0.000  0.000  0.000  0.075
  3  0.179  0.001  0.005  0.002  0.000  0.000  0.000  0.000  0.000  0.186
  4  0.020  0.002  0.000  0.000  0.000  0.000  0.000  0.000  0.000  0.022
  5  0.082  0.003  0.001  0.001  0.000  0.000  0.000  0.000  0.000  0.086
tot  0.281  0.138  0.234  0.003  0.000  0.000  0.000  0.000  0.000  0.656
 
band   4 # energy  -10.63902638 # occ.  1.00000000
 
ion      s     py     pz     px    dxy    dyz    dz2    dxz    dx2    tot
  1  0.000  0.181  0.105  0.000  0.000  0.000  0.000  0.000  0.000  0.286
  2  0.000  0.048  0.028  0.000  0.000  0.000  0.000  0.000  0.000  0.076
  3  0.007  0.002  0.000  0.000  0.000  0.000  0.000  0.000  0.000  0.009
  4  0.168  0.001  0.004  0.002  0.000  0.000  0.000  0.000  0.000  0.174
  5  0.104  0.003  0.001  0.001  0.000  0.000  0.000  0.000  0.000  0.109
tot  0.279  0.234  0.138  0.003  0.000  0.000  0.000  0.000  0.000  0.654
 
band   5 # energy  -10.08234839 # occ.  1.00000000
 
ion      s     py     pz     px    dxy    dyz    dz2    dxz    dx2    tot
  1  0.000  0.000  0.000  0.196  0.000  0.000  0.000  0.000  0.000  0.196
  2  0.023  0.000  0.000  0.426  0.000  0.000  0.000  0.000  0.000  0.449
  3  0.019  0.000  0.001  0.001  0.000  0.000  0.000  0.000  0.000  0.021
  4  0.016  0.000  0.001  0.001  0.000  0.000  0.000  0.000  0.000  0.018
  5  0.018  0.001  0.000  0.001  0.000  0.000  0.000  0.000  0.000  0.020
tot  0.076  0.002  0.002  0.625  0.000  0.000  0.000  0.000  0.000  0.705
 
band   6 # energy   -6.78165389 # occ.  1.03912680
 
ion      s     py     pz     px    dxy    dyz    dz2    dxz    dx2    tot
  1  0.000  0.016  0.019  0.000  0.000  0.000  0.000  0.000  0.000  0.035
  2  0.000  0.264  0.304  0.000  0.000  0.000  0.000  0.000  0.000  0.568
  3  0.040  0.000  0.001  0.000  0.000  0.000  0.000  0.000  0.000  0.041
  4  0.002  0.000  0.000  0.000  0.000  0.000  0.000  0.000  0.000  0.003
  5  0.023  0.001  0.000  0.000  0.000  0.000  0.000  0.000  0.000  0.024
tot  0.066  0.281  0.324  0.000  0.000  0.000  0.000  0.000  0.000  0.671
 
band   7 # energy   -6.75721061 # occ.  0.96087320
 
ion      s     py     pz     px    dxy    dyz    dz2    dxz    dx2    tot
  1  0.000  0.019  0.016  0.000  0.000  0.000  0.000  0.000  0.000  0.035
  2  0.000  0.304  0.263  0.000  0.000  0.000  0.000  0.000  0.000  0.567
  3  0.004  0.000  0.000  0.000  0.000  0.000  0.000  0.000  0.000  0.004
  4  0.042  0.000  0.001  0.000  0.000  0.000  0.000  0.000  0.000  0.043
  5  0.021  0.000  0.000  0.000  0.000  0.000  0.000  0.000  0.000  0.021
tot  0.066  0.323  0.281  0.000  0.000  0.000  0.000  0.000  0.000  0.671
 
band   8 # energy   -0.53438575 # occ.  0.00000000
 
ion      s     py     pz     px    dxy    dyz    dz2    dxz    dx2    tot
  1  0.058  0.000  0.000  0.008  0.000  0.000  0.000  0.000  0.000  0.066
  2  0.001  0.000  0.000  0.042  0.000  0.000  0.000  0.000  0.000  0.043
  3  0.000  0.000  0.002  0.001  0.000  0.000  0.000  0.000  0.000  0.003
  4  0.000  0.001  0.002  0.001  0.000  0.000  0.000  0.000  0.000  0.004
  5  0.000  0.002  0.000  0.001  0.000  0.000  0.000  0.000  0.000  0.004
tot  0.059  0.003  0.003  0.053  0.000  0.000  0.000  0.000  0.000  0.120
 
band   9 # energy   -0.12428928 # occ.  0.00000000
 
ion      s     py     pz     px    dxy    dyz    dz2    dxz    dx2    tot
  1  0.025  0.000  0.000  0.106  0.000  0.000  0.000  0.000  0.000  0.131
  2  0.042  0.000  0.000  0.074  0.000  0.000  0.000  0.000  0.000  0.115
  3  0.000  0.000  0.000  0.003  0.000  0.000  0.000  0.000  0.000  0.003
  4  0.000  0.000  0.000  0.003  0.000  0.000  0.000  0.000  0.000  0.003
  5  0.000  0.000  0.000  0.003  0.000  0.000  0.000  0.000  0.000  0.003
tot  0.067  0.000  0.000  0.189  0.000  0.000  0.000  0.000  0.000  0.257
 
band  10 # energy    0.94999751 # occ.  0.00000000
 
ion      s     py     pz     px    dxy    dyz    dz2    dxz    dx2    tot
  1  0.000  0.027  0.006  0.000  0.000  0.000  0.000  0.000  0.000  0.033
  2  0.000  0.003  0.001  0.000  0.000  0.000  0.000  0.000  0.000  0.004
  3  0.000  0.000  0.000  0.000  0.000  0.000  0.000  0.000  0.000  0.000
  4  0.000  0.000  0.002  0.001  0.000  0.000  0.000  0.000  0.000  0.003
  5  0.000  0.002  0.000  0.001  0.000  0.000  0.000  0.000  0.000  0.003
tot  0.000  0.033  0.009  0.001  0.000  0.000  0.000  0.000  0.000  0.043
 
band  11 # energy    1.00969424 # occ.  0.00000000
 
ion      s     py     pz     px    dxy    dyz    dz2    dxz    dx2    tot
  1  0.003  0.006  0.017  0.000  0.000  0.000  0.000  0.000  0.000  0.025
  2  0.001  0.000  0.002  0.000  0.000  0.000  0.000  0.000  0.000  0.004
  3  0.001  0.001  0.003  0.000  0.000  0.000  0.000  0.000  0.000  0.005
  4  0.000  0.000  0.000  0.000  0.000  0.000  0.000  0.000  0.000  0.001
  5  0.000  0.000  0.000  0.000  0.000  0.000  0.000  0.000  0.000  0.001
tot  0.005  0.007  0.022  0.002  0.000  0.000  0.000  0.000  0.000  0.036
 
band  12 # energy    1.03897453 # occ.  0.00000000
 
ion      s     py     pz     px    dxy    dyz    dz2    dxz    dx2    tot
  1  0.003  0.002  0.011  0.000  0.000  0.000  0.000  0.000  0.000  0.016
  2  0.002  0.000  0.001  0.001  0.000  0.000  0.000  0.000  0.000  0.005
  3  0.000  0.000  0.000  0.001  0.000  0.000  0.000  0.000  0.000  0.001
  4  0.001  0.001  0.001  0.000  0.000  0.000  0.000  0.000  0.000  0.002
  5  0.001  0.002  0.000  0.000  0.000  0.000  0.000  0.000  0.000  0.003
tot  0.008  0.004  0.013  0.002  0.000  0.000  0.000  0.000  0.000  0.027
 
# of k-points:    1         # of bands:  12         # of ions:   5

 k-point    1 :    0.00000000 0.00000000 0.00000000     weight = 1.00000000

band   1 # energy  -21.13978337 # occ.  1.00000000
 
ion      s     py     pz     px    dxy    dyz    dz2    dxz    dx2    tot
  1  0.128  0.000  0.000  0.015  0.000  0.000  0.000  0.000  0.000  0.143
  2  0.572  0.000  0.000  0.026  0.000  0.000  0.000  0.000  0.000  0.598
  3  0.011  0.000  0.001  0.000  0.000  0.000  0.000  0.000  0.000  0.013
  4  0.012  0.000  0.001  0.000  0.000  0.000  0.000  0.000  0.000  0.013
  5  0.011  0.001  0.000  0.000  0.000  0.000  0.000  0.000  0.000  0.013
tot  0.735  0.001  0.001  0.042  0.000  0.000  0.000  0.000  0.000  0.780
 
band   2 # energy  -16.46262187 # occ.  1.00000000
 
ion      s     py     pz     px    dxy    dyz    dz2    dxz    dx2    tot
  1  0.285  0.000  0.000  0.019  0.000  0.000  0.000  0.000  0.000  0.305
  2  0.204  0.000  0.000  0.026  0.000  0.000  0.000  0.000  0.000  0.230
  3  0.066  0.001  0.004  0.000  0.000  0.000  0.000  0.000  0.000  0.072
  4  0.067  0.002  0.004  0.000  0.000  0.000  0.000  0.000  0.000  0.073
  5  0.066  0.005  0.000  0.000  0.000  0.000  0.000  0.000  0.000  0.072
tot  0.688  0.008  0.008  0.046  0.000  0.000  0.000  0.000  0.000  0.751
 
band   3 # energy  -10.66830366 # occ.  1.00000000
 
ion      s     py     pz     px    dxy    dyz    dz2    dxz    dx2    tot
  1  0.000  0.013  0.273  0.000  0.000  0.000  0.000  0.000  0.000  0.286
  2  0.000  0.003  0.072  0.000  0.000  0.000  0.000  0.000  0.000  0.075
  3  0.175  0.002  0.003  0.002  0.000  0.000  0.000  0.000  0.000  0.182
  4  0.091  0.003  0.001  0.001  0.000  0.000  0.000  0.000  0.000  0.096
  5  0.015  0.001  0.002  0.000  0.000  0.000  0.000  0.000  0.000  0.017
tot  0.280  0.021  0.351  0.003  0.000  0.000  0.000  0.000  0.000  0.656
 
band   4 # energy  -10.64748727 # occ.  1.00000000
 
ion      s     py     pz     px    dxy    dyz    dz2    dxz    dx2    tot
  1  0.000  0.273  0.012  0.000  0.000  0.000  0.000  0.000  0.000  0.286
  2  0.000  0.072  0.004  0.000  0.000  0.000  0.000  0.000  0.000  0.076
  3  0.011  0.001  0.001  0.000  0.000  0.000  0.000  0.000  0.000  0.014
  4  0.096  0.000  0.004  0.001  0.000  0.000  0.000  0.000  0.000  0.101
  5  0.171  0.005  0.000  0.002  0.000  0.000  0.000  0.000  0.000  0.178
tot  0.279  0.351  0.021  0.003  0.000  0.000  0.000  0.000  0.000  0.655
 
band   5 # energy  -10.08232728 # occ.  1.00000000
 
ion      s     py     pz     px    dxy    dyz    dz2    dxz    dx2    tot
  1  0.000  0.000  0.000  0.196  0.000  0.000  0.000  0.000  0.000  0.196
  2  0.023  0.000  0.000  0.426  0.000  0.000  0.000  0.000  0.000  0.449
  3  0.019  0.000  0.001  0.001  0.000  0.000  0.000  0.000  0.000  0.021
  4  0.016  0.000  0.001  0.001  0.000  0.000  0.000  0.000  0.000  0.018
  5  0.018  0.001  0.000  0.001  0.000  0.000  0.000  0.000  0.000  0.020
tot  0.076  0.002  0.002  0.625  0.000  0.000  0.000  0.000  0.000  0.705
 
band   6 # energy   -6.81147079 # occ.  1.01668409
 
ion      s     py     pz     px    dxy    dyz    dz2    dxz    dx2    tot
  1  0.000  0.011  0.025  0.000  0.000  0.000  0.000  0.000  0.000  0.036
  2  0.000  0.165  0.401  0.000  0.000  0.000  0.000  0.000  0.000  0.567
  3  0.012  0.000  0.000  0.000  0.000  0.000  0.000  0.000  0.000  0.012
  4  0.045  0.000  0.001  0.000  0.000  0.000  0.000  0.000  0.000  0.046
  5  0.011  0.000  0.000  0.000  0.000  0.000  0.000  0.000  0.000  0.011
tot  0.067  0.177  0.428  0.000  0.000  0.000  0.000  0.000  0.000  0.672
 
band   7 # energy   -6.72784195 # occ.  0.98331591
 
ion      s     py     pz     px    dxy    dyz    dz2    dxz    dx2    tot
  1  0.000  0.024  0.010  0.000  0.000  0.000  0.000  0.000  0.000  0.034
  2  0.000  0.402  0.166  0.000  0.000  0.000  0.000  0.000  0.000  0.569
  3  0.032  0.000  0.001  0.000  0.000  0.000  0.000  0.000  0.000  0.032
  4  0.000  0.000  0.000  0.000  0.000  0.000  0.000  0.000  0.000  0.000
  5  0.033  0.001  0.000  0.000  0.000  0.000  0.000  0.000  0.000  0.034
tot  0.065  0.428  0.177  0.000  0.000  0.000  0.000  0.000  0.000  0.670
 
band   8 # energy   -0.53553770 # occ.  0.00000000
 
ion      s     py     pz     px    dxy    dyz    dz2    dxz    dx2    tot
  1  0.057  0.000  0.000  0.008  0.000  0.000  0.000  0.000  0.000  0.065
  2  0.001  0.000  0.000  0.042  0.000  0.000  0.000  0.000  0.000  0.043
  3  0.000  0.000  0.002  0.001  0.000  0.000  0.000  0.000  0.000  0.004
  4  0.000  0.001  0.002  0.001  0.000  0.000  0.000  0.000  0.000  0.004
  5  0.000  0.002  0.000  0.001  0.000  0.000  0.000  0.000  0.000  0.003
tot  0.059  0.003  0.004  0.053  0.000  0.000  0.000  0.000  0.000  0.118
 
band   9 # energy   -0.12701083 # occ.  0.00000000
 
ion      s     py     pz     px    dxy    dyz    dz2    dxz    dx2    tot
  1  0.026  0.000  0.000  0.106  0.000  0.000  0.000  0.000  0.000  0.132
  2  0.042  0.000  0.000  0.074  0.000  0.000  0.000  0.000  0.000  0.116
  3  0.000  0.000  0.000  0.003  0.000  0.000  0.000  0.000  0.000  0.003
  4  0.000  0.000  0.000  0.003  0.000  0.000  0.000  0.000  0.000  0.003
  5  0.000  0.000  0.000  0.003  0.000  0.000  0.000  0.000  0.000  0.003
tot  0.067  0.000  0.000  0.190  0.000  0.000  0.000  0.000  0.000  0.258
 
band  10 # energy    0.97426482 # occ.  0.00000000
 
ion      s     py     pz     px    dxy    dyz    dz2    dxz    dx2    tot
  1  0.000  0.022  0.012  0.000  0.000  0.000  0.000  0.000  0.000  0.034
  2  0.000  0.002  0.001  0.000  0.000  0.000  0.000  0.000  0.000  0.003
  3  0.000  0.000  0.002  0.001  0.000  0.000  0.000  0.000  0.000  0.003
  4  0.000  0.000  0.000  0.000  0.000  0.000  0.000  0.000  0.000  0.000
  5  0.000  0.003  0.000  0.001  0.000  0.000  0.000  0.000  0.000  0.004
tot  0.001  0.027  0.015  0.001  0.000  0.000  0.000  0.000  0.000  0.045
 
band  11 # energy    0.99816801 # occ.  0.00000000
 
ion      s     py     pz     px    dxy    dyz    dz2    dxz    dx2    tot
  1  0.000  0.011  0.022  0.000  0.000  0.000  0.000  0.000  0.000  0.034
  2  0.000  0.001  0.003  0.000  0.000  0.000  0.000  0.000  0.000  0.005
  3  0.000  0.001  0.000  0.000  0.000  0.000  0.000  0.000  0.000  0.001
  4  0.000  0.001  0.002  0.001  0.000  0.000  0.000  0.000  0.000  0.004
  5  0.000  0.001  0.000  0.000  0.000  0.000  0.000  0.000  0.000  0.002
tot  0.001  0.015  0.028  0.001  0.000  0.000  0.000  0.000  0.000  0.044
 
band  12 # energy    1.02606092 # occ.  0.00000000
 
ion      s     py     pz     px    dxy    dyz    dz2    dxz    dx2    tot
  1  0.006  0.001  0.000  0.000  0.000  0.000  0.000  0.000  0.000  0.007
  2  0.003  0.000  0.000  0.002  0.000  0.000  0.000  0.000  0.000  0.005
  3  0.001  0.000  0.001  0.000  0.000  0.000  0.000  0.000  0.000  0.002
  4  0.001  0.000  0.001  0.000  0.000  0.000  0.000  0.000  0.000  0.003
  5  0.001  0.000  0.000  0.000  0.000  0.000  0.000  0.000  0.000  0.002
tot  0.012  0.002  0.002  0.003  0.000  0.000  0.000  0.000  0.000  0.019
 
