<?xml version="1.0" encoding="ISO-8859-1"?>
<modeling>
 <generator>
  <i name="program" type="string">vasp </i>
  <i name="version" type="string">5.4.1  </i>
  <i name="subversion" type="string">24Jun15 (build Jul 07 2016 20:05:55) complex                          parallel </i>
  <i name="platform" type="string">IFC91_ompi </i>
  <i name="date" type="string">2017 12 22 </i>
  <i name="time" type="string">16:44:43 </i>
 </generator>
 <incar>
  <i type="string" name="PREC">accurate</i>
  <i type="string" name="ALGO"> Fast</i>
  <i type="int" name="ISPIN">     2</i>
  <i type="int" name="NELM">   200</i>
  <i type="int" name="IBRION">     5</i>
  <i name="EDIFF">      0.00010000</i>
  <i name="EDIFFG">     -0.02000000</i>
  <i type="int" name="NSW">   100</i>
  <i type="int" name="ISIF">     2</i>
  <i name="ENCUT">    300.00000000</i>
  <i name="POTIM">      0.01000000</i>
  <i name="NUPDOWN">      0.00000000</i>
  <v name="MAGMOM">      0.00000000      0.00000000      0.00000000      0.00000000      0.00000000</v>
  <i type="string" name="LREAL"> Auto</i>
  <i type="int" name="ISMEAR">     2</i>
  <i name="SIGMA">      0.10000000</i>
  <i type="logical" name="LWAVE"> F  </i>
  <i type="logical" name="LCHARG"> F  </i>
  <i type="logical" name="LORBIT"> F  </i>
  <v type="int" name="KPOINT_BSE">    -1     0     0     0</v>
  <i type="int" name="NELM">   200</i>
  <i type="int" name="IDIPOL">     3</i>
 </incar>
 <kpoints>
  <generation param="Gamma">
   <v type="int" name="divisions">       1        1        1 </v>
   <v name="usershift">      0.00000000       0.00000000       0.00000000 </v>
   <v name="genvec1">      1.00000000       0.00000000       0.00000000 </v>
   <v name="genvec2">      0.00000000       1.00000000       0.00000000 </v>
   <v name="genvec3">      0.00000000       0.00000000       1.00000000 </v>
   <v name="shift">      0.00000000       0.00000000       0.00000000 </v>
  </generation>
  <varray name="kpointlist" >
   <v>       0.00000000       0.00000000       0.00000000 </v>
  </varray>
  <varray name="weights" >
   <v>       1.00000000 </v>
  </varray>
 </kpoints>
 <parameters>
  <separator name="general" >
   <i type="string" name="SYSTEM">unknown system</i>
   <i type="logical" name="LCOMPAT"> F  </i>
  </separator>
  <separator name="electronic" >
   <i type="string" name="PREC">accura</i>
   <i name="ENMAX">    300.00000000</i>
   <i name="ENAUG">    644.87300000</i>
   <i name="EDIFF">      0.00010000</i>
   <i type="int" name="IALGO">    68</i>
   <i type="int" name="IWAVPR">    11</i>
   <i type="int" name="NBANDS">    12</i>
   <i name="NELECT">     14.00000000</i>
   <i type="int" name="TURBO">     0</i>
   <i type="int" name="IRESTART">     0</i>
   <i type="int" name="NREBOOT">     0</i>
   <i type="int" name="NMIN">     0</i>
   <i name="EREF">      0.00000000</i>
   <separator name="electronic smearing" >
    <i type="int" name="ISMEAR">     2</i>
    <i name="SIGMA">      0.10000000</i>
    <i name="KSPACING">      0.50000000</i>
    <i type="logical" name="KGAMMA"> T  </i>
   </separator>
   <separator name="electronic projectors" >
    <i type="logical" name="LREAL"> T  </i>
    <v name="ROPT">     -0.00025000     -0.00025000     -0.00025000</v>
    <i type="int" name="LMAXPAW">  -100</i>
    <i type="int" name="LMAXMIX">     2</i>
    <i type="logical" name="NLSPLINE"> F  </i>
   </separator>
   <separator name="electronic startup" >
    <i type="int" name="ISTART">     0</i>
    <i type="int" name="ICHARG">     2</i>
    <i type="int" name="INIWAV">     1</i>
   </separator>
   <separator name="electronic spin" >
    <i type="int" name="ISPIN">     2</i>
    <i type="logical" name="LNONCOLLINEAR"> F  </i>
    <v name="MAGMOM">      0.00000000      0.00000000      0.00000000      0.00000000      0.00000000</v>
    <i name="NUPDOWN">      0.00000000</i>
    <i type="logical" name="LSORBIT"> F  </i>
    <v name="SAXIS">      0.00000000      0.00000000      1.00000000</v>
    <i type="logical" name="LSPIRAL"> F  </i>
    <v name="QSPIRAL">      0.00000000      0.00000000      0.00000000</v>
    <i type="logical" name="LZEROZ"> F  </i>
   </separator>
   <separator name="electronic exchange-correlation" >
    <i type="logical" name="LASPH"> F  </i>
    <i type="logical" name="LMETAGGA"> F  </i>
   </separator>
   <separator name="electronic convergence" >
    <i type="int" name="NELM">   200</i>
    <i type="int" name="NELMDL">    -5</i>
    <i type="int" name="NELMIN">     2</i>
    <i name="ENINI">    300.00000000</i>
    <separator name="electronic convergence detail" >
     <i type="logical" name="LDIAG"> T  </i>
     <i type="logical" name="LSUBROT"> F  </i>
     <i name="WEIMIN">      0.00100000</i>
     <i name="EBREAK">      0.00000208</i>
     <i name="DEPER">      0.30000000</i>
     <i type="int" name="NRMM">     4</i>
     <i name="TIME">      0.40000000</i>
    </separator>
   </separator>
   <separator name="electronic mixer" >
    <i name="AMIX">      0.40000000</i>
    <i name="BMIX">      1.00000000</i>
    <i name="AMIN">      0.10000000</i>
    <i name="AMIX_MAG">      1.60000000</i>
    <i name="BMIX_MAG">      1.00000000</i>
    <separator name="electronic mixer details" >
     <i type="int" name="IMIX">     4</i>
     <i type="logical" name="MIXFIRST"> F  </i>
     <i type="int" name="MAXMIX">   -45</i>
     <i name="WC">    100.00000000</i>
     <i type="int" name="INIMIX">     1</i>
     <i type="int" name="MIXPRE">     1</i>
     <i type="int" name="MREMOVE">     5</i>
    </separator>
   </separator>
   <separator name="electronic dipolcorrection" >
    <i type="logical" name="LDIPOL"> F  </i>
    <i type="logical" name="LMONO"> F  </i>
    <i type="int" name="IDIPOL">     3</i>
    <i name="EPSILON">      1.00000000</i>
    <v name="DIPOL">   -100.00000000   -100.00000000   -100.00000000</v>
    <i name="EFIELD">      0.00000000</i>
   </separator>
  </separator>
  <separator name="grids" >
   <i type="int" name="NGX">    56</i>
   <i type="int" name="NGY">    56</i>
   <i type="int" name="NGZ">    56</i>
   <i type="int" name="NGXF">   112</i>
   <i type="int" name="NGYF">   112</i>
   <i type="int" name="NGZF">   112</i>
   <i type="logical" name="ADDGRID"> F  </i>
  </separator>
  <separator name="ionic" >
   <i type="int" name="NSW">    97</i>
   <i type="int" name="IBRION">     5</i>
   <i type="int" name="ISIF">     2</i>
   <i name="PSTRESS">      0.00000000</i>
   <i name="EDIFFG">     -0.02000000</i>
   <i type="int" name="NFREE">     2</i>
   <i name="POTIM">      0.01000000</i>
   <i name="SMASS">     -3.00000000</i>
   <i name="SCALEE">      1.00000000</i>
  </separator>
  <separator name="ionic md" >
   <i name="TEBEG">      0.00010000</i>
   <i name="TEEND">      0.00010000</i>
   <i type="int" name="NBLOCK">     1</i>
   <i type="int" name="KBLOCK">     1</i>
   <i type="int" name="NPACO">   256</i>
   <i name="APACO">     16.00000000</i>
  </separator>
  <separator name="symmetry" >
   <i type="int" name="ISYM">     2</i>
   <i name="SYMPREC">      0.00001000</i>
  </separator>
  <separator name="dos" >
   <i type="logical" name="LORBIT"> F  </i>
   <v name="RWIGS">     -1.00000000     -1.00000000     -1.00000000</v>
   <i type="int" name="NEDOS">   301</i>
   <i name="EMIN">     10.00000000</i>
   <i name="EMAX">    -10.00000000</i>
   <i name="EFERMI">      0.00000000</i>
  </separator>
  <separator name="writing" >
   <i type="int" name="NWRITE">     2</i>
   <i type="logical" name="LWAVE"> F  </i>
   <i type="logical" name="LCHARG"> F  </i>
   <i type="logical" name="LPARD"> F  </i>
   <i type="logical" name="LVTOT"> F  </i>
   <i type="logical" name="LVHAR"> F  </i>
   <i type="logical" name="LELF"> F  </i>
   <i type="logical" name="LOPTICS"> F  </i>
   <v name="STM">      0.00000000      0.00000000      0.00000000      0.00000000      0.00000000      0.00000000      0.00000000</v>
  </separator>
  <separator name="performance" >
   <i type="int" name="NPAR">    12</i>
   <i type="int" name="NSIM">     4</i>
   <i type="int" name="NBLK">    -1</i>
   <i type="logical" name="LPLANE"> T  </i>
   <i type="logical" name="LSCALAPACK"> T  </i>
   <i type="logical" name="LSCAAWARE"> F  </i>
   <i type="logical" name="LSCALU"> F  </i>
   <i type="logical" name="LASYNC"> F  </i>
   <i type="logical" name="LORBITALREAL"> F  </i>
  </separator>
  <separator name="miscellaneous" >
   <i type="int" name="IDIOT">     3</i>
   <i type="logical" name="LMUSIC"> F  </i>
   <v name="POMASS">     12.01100000     35.45300000      1.00000000</v>
   <v name="DARWINR">      0.00000000      0.00000000      0.00000000</v>
   <v name="DARWINV">      1.00000000      1.00000000      1.00000000</v>
   <i type="logical" name="LCORR"> T  </i>
  </separator>
  <i type="logical" name="GGA_COMPAT"> T  </i>
  <i type="logical" name="LBERRY"> F  </i>
  <i type="int" name="ICORELEVEL">     0</i>
  <i type="logical" name="LDAU"> F  </i>
  <i type="int" name="I_CONSTRAINED_M">     0</i>
  <separator name="electronic exchange-correlation" >
   <i type="string" name="GGA">--</i>
   <i type="int" name="VOSKOWN">     0</i>
   <i type="logical" name="LHFCALC"> F  </i>
   <i type="string" name="PRECFOCK"></i>
   <i type="logical" name="LSYMGRAD"> F  </i>
   <i type="logical" name="LHFONE"> F  </i>
   <i type="logical" name="LRHFCALC"> F  </i>
   <i type="logical" name="LTHOMAS"> F  </i>
   <i type="logical" name="LMODELHF"> F  </i>
   <i name="ENCUT4O">     -1.00000000</i>
   <i type="int" name="EXXOEP">     0</i>
   <i type="int" name="FOURORBIT">     0</i>
   <i name="AEXX">      0.00000000</i>
   <i name="HFALPHA">      0.00000000</i>
   <i name="MCALPHA">      0.00000000</i>
   <i name="ALDAX">      1.00000000</i>
   <i name="AGGAX">      1.00000000</i>
   <i name="ALDAC">      1.00000000</i>
   <i name="AGGAC">      1.00000000</i>
   <i type="int" name="NKREDX">     1</i>
   <i type="int" name="NKREDY">     1</i>
   <i type="int" name="NKREDZ">     1</i>
   <i type="logical" name="SHIFTRED"> F  </i>
   <i type="logical" name="ODDONLY"> F  </i>
   <i type="logical" name="EVENONLY"> F  </i>
   <i type="int" name="LMAXFOCK">     0</i>
   <i type="int" name="NMAXFOCKAE">     0</i>
   <i type="logical" name="LFOCKAEDFT"> F  </i>
   <i name="HFSCREEN">      0.00000000</i>
   <i name="HFSCREENC">      0.00000000</i>
   <i type="int" name="NBANDSGWLOW">     0</i>
  </separator>
  <separator name="vdW DFT" >
   <i type="logical" name="LUSE_VDW"> F  </i>
   <i name="Zab_VDW">     -0.84910000</i>
   <i name="PARAM1">      0.12340000</i>
   <i name="PARAM2">      1.00000000</i>
   <i name="PARAM3">      0.00000000</i>
  </separator>
  <separator name="model GW" >
   <i type="int" name="MODEL_GW">     0</i>
   <i name="MODEL_EPS0">    120.00000000</i>
   <i name="MODEL_ALPHA">      1.00000000</i>
  </separator>
  <separator name="linear response parameters" >
   <i type="logical" name="LEPSILON"> F  </i>
   <i type="logical" name="LRPA"> F  </i>
   <i type="logical" name="LNABLA"> F  </i>
   <i type="logical" name="LVEL"> F  </i>
   <i type="int" name="KINTER">     0</i>
   <i name="CSHIFT">      0.10000000</i>
   <i name="OMEGAMAX">     -1.00000000</i>
   <i name="DEG_THRESHOLD">      0.00200000</i>
  </separator>
  <separator name="orbital magnetization" >
   <i type="logical" name="NUCIND"> F  </i>
   <v name="MAGPOS">      0.00000000      0.00000000      0.00000000</v>
   <i type="logical" name="LNICSALL"> T  </i>
   <i type="logical" name="ORBITALMAG"> F  </i>
   <i type="logical" name="LMAGBLOCH"> F  </i>
   <i type="logical" name="LCHIMAG"> F  </i>
   <i type="logical" name="LGAUGE"> T  </i>
   <i type="int" name="MAGATOM">     0</i>
   <v name="MAGDIPOL">      0.00000000      0.00000000      0.00000000</v>
   <v name="AVECCONST">      0.00000000      0.00000000      0.00000000</v>
  </separator>
  <separator name="response functions" >
   <i type="logical" name="LADDER"> F  </i>
   <i type="logical" name="LFXC"> F  </i>
   <i type="logical" name="LHARTREE"> T  </i>
   <i type="int" name="IBSE">     0</i>
   <v type="int" name="KPOINT">    -1     0     0     0</v>
   <i type="logical" name="LTCTE"> F  </i>
   <i type="logical" name="LTETE"> F  </i>
   <i type="logical" name="LTRIPLET"> F  </i>
   <i type="logical" name="LFXCEPS"> F  </i>
   <i type="logical" name="LFXHEG"> F  </i>
   <i type="int" name="NATURALO">     0</i>
   <i type="logical" name="L2ORDER"> F  </i>
   <i type="logical" name="LUSEW"> F  </i>
   <i name="ENCUTGW">     -2.00000000</i>
   <i name="ENCUTGWSOFT">     -2.00000000</i>
   <i name="ENCUTLF">     -1.00000000</i>
   <i type="int" name="LMAXMP2">    -1</i>
   <i name="SCISSOR">      0.00000000</i>
   <i type="int" name="NOMEGA">     0</i>
   <i type="int" name="NOMEGAR">     0</i>
   <i type="int" name="NBANDSGW">    -1</i>
   <i type="int" name="NBANDSO">    -1</i>
   <i type="int" name="NBANDSV">    -1</i>
   <i type="int" name="NELM">   200</i>
   <i type="int" name="NELMHF">     1</i>
   <i type="int" name="DIM">     3</i>
   <i type="int" name="ANTIRES">     0</i>
   <i name="OMEGAMAX">    -30.00000000</i>
   <i name="OMEGAMIN">    -30.00000000</i>
   <i name="OMEGATL">   -200.00000000</i>
   <i type="int" name="OMEGAGRID">     0</i>
   <i name="CSHIFT">     -0.10000000</i>
   <i type="logical" name="SELFENERGY"> F  </i>
   <i type="logical" name="LSPECTRAL"> F  </i>
   <i type="logical" name="LSPECTRALGW"> F  </i>
   <i type="logical" name="LSINGLES"> F  </i>
   <i type="logical" name="LFERMIGW"> F  </i>
   <i type="logical" name="ODDONLYGW"> F  </i>
   <i type="logical" name="EVENONLYGW"> F  </i>
   <i type="int" name="NKREDLFX">     1</i>
   <i type="int" name="NKREDLFY">     1</i>
   <i type="int" name="NKREDLFZ">     1</i>
   <i type="int" name="MAXMEM">  1800</i>
   <i type="int" name="TELESCOPE">     0</i>
   <i type="int" name="TAUPAR">     1</i>
   <i type="int" name="OMEGAPAR">    -1</i>
   <i name="LAMBDA">      1.00000000</i>
  </separator>
  <separator name="External order field" >
   <i name="OFIELD_KAPPA">      0.00000000</i>
   <v name="OFIELD_K">      0.00000000      0.00000000      0.00000000</v>
   <i name="OFIELD_Q6_NEAR">      0.00000000</i>
   <i name="OFIELD_Q6_FAR">      0.00000000</i>
   <i name="OFIELD_A">      0.00000000</i>
  </separator>
  <separator name="solvation model" >
   <i type="logical" name="LSOL"> F  </i>
  </separator>
 </parameters>
 <atominfo>
  <atoms>       5 </atoms>
  <types>       3 </types>
  <array name="atoms" >
   <dimension dim="1">ion</dimension>
   <field type="string">element</field>
   <field type="int">atomtype</field>
   <set>
    <rc><c>C </c><c>   1</c></rc>
    <rc><c>Cl</c><c>   2</c></rc>
    <rc><c>H </c><c>   3</c></rc>
    <rc><c>H </c><c>   3</c></rc>
    <rc><c>H </c><c>   3</c></rc>
   </set>
  </array>
  <array name="atomtypes" >
   <dimension dim="1">type</dimension>
   <field type="int">atomspertype</field>
   <field type="string">element</field>
   <field>mass</field>
   <field>valence</field>
   <field type="string">pseudopotential</field>
   <set>
    <rc><c>   1</c><c>C </c><c>     12.01100000</c><c>      4.00000000</c><c>  PAW_PBE C 08Apr2002                   </c></rc>
    <rc><c>   1</c><c>Cl</c><c>     35.45300000</c><c>      7.00000000</c><c>  PAW_PBE Cl 06Sep2000                  </c></rc>
    <rc><c>   3</c><c>H </c><c>      1.00000000</c><c>      1.00000000</c><c>  PAW_PBE H 15Jun2001                   </c></rc>
   </set>
  </array>
 </atominfo>
 <structure name="initialpos" >
  <crystal>
   <varray name="basis" >
    <v>      10.00000000       0.00000000       0.00000000 </v>
    <v>       0.00000000      10.00000000       0.00000000 </v>
    <v>       0.00000000       0.00000000      10.00000000 </v>
   </varray>
   <i name="volume">   1000.00000000 </i>
   <varray name="rec_basis" >
    <v>       0.10000000       0.00000000       0.00000000 </v>
    <v>       0.00000000       0.10000000       0.00000000 </v>
    <v>       0.00000000       0.00000000       0.10000000 </v>
   </varray>
  </crystal>
  <varray name="positions" >
   <v>       0.42950300       0.47713450       0.49666800 </v>
   <v>       0.60620000       0.47713450       0.49666800 </v>
   <v>       0.39380000       0.43140350       0.58920400 </v>
   <v>       0.39380000       0.41986150       0.41079600 </v>
   <v>       0.39380000       0.58013850       0.49000400 </v>
  </varray>
 </structure>
 <calculation>
  <scstep>
   <time name="dav">    0.20    0.20</time>
   <time name="total">    0.52    0.52</time>
   <energy>
    <i name="alphaZ">      0.81223224 </i>
    <i name="ewald">    145.29194979 </i>
    <i name="hartreedc">   -601.48865606 </i>
    <i name="XCdc">     39.82255589 </i>
    <i name="pawpsdc">    440.19968802 </i>
    <i name="pawaedc">   -440.90946169 </i>
    <i name="eentropy">      0.00379227 </i>
    <i name="bandstr">    -87.63349849 </i>
    <i name="atom">    593.94817731 </i>
    <i name="e_fr_energy">     90.04677927 </i>
    <i name="e_wo_entrp">     90.04298700 </i>
    <i name="e_0_energy">     90.04583120 </i>
   </energy>
  </scstep>
  <scstep>
   <time name="dav">    0.20    0.20</time>
   <time name="total">    0.20    0.20</time>
   <energy>
    <i name="e_fr_energy">      8.16495594 </i>
    <i name="e_wo_entrp">      8.15944983 </i>
    <i name="e_0_energy">      8.16357941 </i>
   </energy>
  </scstep>
  <scstep>
   <time name="dav">    0.20    0.20</time>
   <time name="total">    0.20    0.20</time>
   <energy>
    <i name="e_fr_energy">    -23.24697624 </i>
    <i name="e_wo_entrp">    -23.25606041 </i>
    <i name="e_0_energy">    -23.24924728 </i>
   </energy>
  </scstep>
  <scstep>
   <time name="dav">    0.29    0.30</time>
   <time name="total">    0.30    0.30</time>
   <energy>
    <i name="e_fr_energy">    -24.39494251 </i>
    <i name="e_wo_entrp">    -24.40595503 </i>
    <i name="e_0_energy">    -24.39769564 </i>
   </energy>
  </scstep>
  <scstep>
   <time name="dav">    0.20    0.20</time>
   <time name="total">    0.27    0.27</time>
   <energy>
    <i name="e_fr_energy">    -24.39586629 </i>
    <i name="e_wo_entrp">    -24.40687854 </i>
    <i name="e_0_energy">    -24.39861935 </i>
   </energy>
  </scstep>
  <scstep>
   <time name="diag">    0.04    0.04</time>
   <time name="diis">    0.18    0.19</time>
   <time name="orth">    0.00    0.00</time>
   <time name="total">    0.61    0.61</time>
   <energy>
    <i name="e_fr_energy">    -22.71516149 </i>
    <i name="e_wo_entrp">    -22.72617371 </i>
    <i name="e_0_energy">    -22.71791454 </i>
   </energy>
  </scstep>
  <scstep>
   <time name="diag">    0.04    0.04</time>
   <time name="diis">    0.18    0.19</time>
   <time name="orth">    0.00    0.00</time>
   <time name="total">    0.61    0.61</time>
   <energy>
    <i name="e_fr_energy">    -22.35953450 </i>
    <i name="e_wo_entrp">    -22.37054721 </i>
    <i name="e_0_energy">    -22.36228768 </i>
   </energy>
  </scstep>
  <scstep>
   <time name="diag">    0.04    0.04</time>
   <time name="diis">    0.19    0.19</time>
   <time name="orth">    0.00    0.00</time>
   <time name="total">    0.61    0.61</time>
   <energy>
    <i name="e_fr_energy">    -22.29306128 </i>
    <i name="e_wo_entrp">    -22.30408286 </i>
    <i name="e_0_energy">    -22.29581668 </i>
   </energy>
  </scstep>
  <scstep>
   <time name="diag">    0.04    0.04</time>
   <time name="diis">    0.19    0.19</time>
   <time name="orth">    0.00    0.00</time>
   <time name="total">    0.61    0.61</time>
   <energy>
    <i name="e_fr_energy">    -22.28909296 </i>
    <i name="e_wo_entrp">    -22.30051837 </i>
    <i name="e_0_energy">    -22.29194931 </i>
   </energy>
  </scstep>
  <scstep>
   <time name="diag">    0.04    0.04</time>
   <time name="diis">    0.19    0.19</time>
   <time name="orth">    0.00    0.00</time>
   <time name="total">    0.61    0.61</time>
   <energy>
    <i name="e_fr_energy">    -22.29187750 </i>
    <i name="e_wo_entrp">    -22.30404109 </i>
    <i name="e_0_energy">    -22.29491840 </i>
   </energy>
  </scstep>
  <scstep>
   <time name="diag">    0.04    0.04</time>
   <time name="diis">    0.19    0.19</time>
   <time name="orth">    0.00    0.00</time>
   <time name="total">    0.61    0.61</time>
   <energy>
    <i name="e_fr_energy">    -22.28988041 </i>
    <i name="e_wo_entrp">    -22.29388881 </i>
    <i name="e_0_energy">    -22.29088251 </i>
   </energy>
  </scstep>
  <scstep>
   <time name="diag">    0.04    0.04</time>
   <time name="diis">    0.17    0.19</time>
   <time name="orth">    0.00    0.00</time>
   <time name="total">    0.59    0.61</time>
   <energy>
    <i name="e_fr_energy">    -22.29151702 </i>
    <i name="e_wo_entrp">    -22.29546759 </i>
    <i name="e_0_energy">    -22.29250467 </i>
   </energy>
  </scstep>
  <scstep>
   <time name="diag">    0.04    0.04</time>
   <time name="diis">    0.19    0.19</time>
   <time name="orth">    0.00    0.00</time>
   <time name="total">    0.61    0.61</time>
   <energy>
    <i name="e_fr_energy">    -22.29752945 </i>
    <i name="e_wo_entrp">    -22.30993413 </i>
    <i name="e_0_energy">    -22.30063062 </i>
   </energy>
  </scstep>
  <scstep>
   <time name="diag">    0.04    0.04</time>
   <time name="diis">    0.18    0.18</time>
   <time name="orth">    0.00    0.00</time>
   <time name="total">    0.60    0.61</time>
   <energy>
    <i name="e_fr_energy">    -22.30081859 </i>
    <i name="e_wo_entrp">    -22.31256024 </i>
    <i name="e_0_energy">    -22.30375400 </i>
   </energy>
  </scstep>
  <scstep>
   <time name="diag">    0.04    0.04</time>
   <time name="diis">    0.18    0.18</time>
   <time name="orth">    0.00    0.00</time>
   <time name="total">    0.59    0.63</time>
   <energy>
    <i name="e_fr_energy">    -22.30298162 </i>
    <i name="e_wo_entrp">    -22.31071262 </i>
    <i name="e_0_energy">    -22.30491437 </i>
   </energy>
  </scstep>
  <scstep>
   <time name="diag">    0.04    0.04</time>
   <time name="diis">    0.16    0.16</time>
   <time name="orth">    0.00    0.00</time>
   <time name="total">    0.58    0.59</time>
   <energy>
    <i name="e_fr_energy">    -22.30385300 </i>
    <i name="e_wo_entrp">    -22.31357971 </i>
    <i name="e_0_energy">    -22.30628467 </i>
   </energy>
  </scstep>
  <scstep>
   <time name="diag">    0.04    0.04</time>
   <time name="diis">    0.17    0.17</time>
   <time name="orth">    0.00    0.00</time>
   <time name="total">    0.59    0.59</time>
   <energy>
    <i name="e_fr_energy">    -22.30433203 </i>
    <i name="e_wo_entrp">    -22.31622971 </i>
    <i name="e_0_energy">    -22.30730645 </i>
   </energy>
  </scstep>
  <scstep>
   <time name="diag">    0.04    0.04</time>
   <time name="diis">    0.17    0.17</time>
   <time name="orth">    0.00    0.00</time>
   <time name="total">    0.59    0.59</time>
   <energy>
    <i name="e_fr_energy">    -22.30504117 </i>
    <i name="e_wo_entrp">    -22.31466438 </i>
    <i name="e_0_energy">    -22.30744698 </i>
   </energy>
  </scstep>
  <scstep>
   <time name="diag">    0.04    0.04</time>
   <time name="diis">    0.16    0.16</time>
   <time name="orth">    0.00    0.00</time>
   <time name="total">    0.58    0.59</time>
   <energy>
    <i name="e_fr_energy">    -22.30598499 </i>
    <i name="e_wo_entrp">    -22.31593276 </i>
    <i name="e_0_energy">    -22.30847193 </i>
   </energy>
  </scstep>
  <scstep>
   <time name="diag">    0.04    0.04</time>
   <time name="diis">    0.16    0.16</time>
   <time name="orth">    0.00    0.00</time>
   <time name="total">    0.58    0.59</time>
   <energy>
    <i name="e_fr_energy">    -22.30635056 </i>
    <i name="e_wo_entrp">    -22.31680343 </i>
    <i name="e_0_energy">    -22.30896378 </i>
   </energy>
  </scstep>
  <scstep>
   <time name="diag">    0.04    0.04</time>
   <time name="diis">    0.16    0.16</time>
   <time name="orth">    0.00    0.00</time>
   <time name="total">    0.58    0.58</time>
   <energy>
    <i name="e_fr_energy">    -22.30647535 </i>
    <i name="e_wo_entrp">    -22.31656609 </i>
    <i name="e_0_energy">    -22.30899804 </i>
   </energy>
  </scstep>
  <scstep>
   <time name="diag">    0.04    0.04</time>
   <time name="diis">    0.16    0.16</time>
   <time name="orth">    0.00    0.00</time>
   <time name="total">    0.51    0.52</time>
   <energy>
    <i name="alphaZ">      0.81223224 </i>
    <i name="ewald">    145.29194979 </i>
    <i name="hartreedc">   -638.47959606 </i>
    <i name="XCdc">     42.14895879 </i>
    <i name="pawpsdc">    991.16678939 </i>
    <i name="pawaedc">   -992.12072967 </i>
    <i name="eentropy">      0.01009979 </i>
    <i name="bandstr">   -165.08443221 </i>
    <i name="atom">    593.94817731 </i>
    <i name="e_fr_energy">    -22.30655063 </i>
    <i name="e_wo_entrp">    -22.31665042 </i>
    <i name="e_0_energy">    -22.30907558 </i>
   </energy>
  </scstep>
  <dipole>
   <v name="dipole">      0.00000000       0.00000000       0.00007960 </v>
   <i name="Tr[quadrupol]">   -531.07998663 </i>
   <i name="Echarged">      0.00000000 </i>
   <i name="Edipol_quadrupol">      0.00000000 </i>
   <i name="Eion">      0.00000000 </i>
  </dipole>
  <structure>
   <crystal>
    <varray name="basis" >
     <v>      10.00000000       0.00000000       0.00000000 </v>
     <v>       0.00000000      10.00000000       0.00000000 </v>
     <v>       0.00000000       0.00000000      10.00000000 </v>
    </varray>
    <i name="volume">   1000.00000000 </i>
    <varray name="rec_basis" >
     <v>       0.10000000       0.00000000       0.00000000 </v>
     <v>       0.00000000       0.10000000       0.00000000 </v>
     <v>       0.00000000       0.00000000       0.10000000 </v>
    </varray>
   </crystal>
   <varray name="positions" >
    <v>       0.42950300       0.47713450       0.49666800 </v>
    <v>       0.60620000       0.47713450       0.49666800 </v>
    <v>       0.39380000       0.43140350       0.58920400 </v>
    <v>       0.39380000       0.41986150       0.41079600 </v>
    <v>       0.39380000       0.58013850       0.49000400 </v>
   </varray>
  </structure>
  <varray name="forces" >
   <v>      -0.06870469       0.00039294      -0.00088985 </v>
   <v>       0.28928153      -0.00110499      -0.00062808 </v>
   <v>      -0.07229485      -0.12918949       0.26258790 </v>
   <v>      -0.07158128      -0.16059209      -0.24197851 </v>
   <v>      -0.07670071       0.29049364      -0.01909145 </v>
  </varray>
  <varray name="stress" >
   <v>      -1.62595384       0.00624063       0.00204574 </v>
   <v>       0.00624062      -2.56540712       0.01019763 </v>
   <v>       0.00204577       0.01019760      -2.58006292 </v>
  </varray>
  <energy>
   <i name="e_fr_energy">    -22.30655063 </i>
   <i name="e_wo_entrp">    -22.30907558 </i>
   <i name="e_0_energy">      0.01009979 </i>
  </energy>
  <kpoints>
   <generation param="Gamma">
    <v type="int" name="divisions">       1        1        1 </v>
    <v name="usershift">      0.00000000       0.00000000       0.00000000 </v>
    <v name="genvec1">      1.00000000       0.00000000       0.00000000 </v>
    <v name="genvec2">      0.00000000       1.00000000       0.00000000 </v>
    <v name="genvec3">      0.00000000       0.00000000       1.00000000 </v>
    <v name="shift">      0.00000000       0.00000000       0.00000000 </v>
   </generation>
   <varray name="kpointlist" >
    <v>       0.00000000       0.00000000       0.00000000 </v>
   </varray>
   <varray name="weights" >
    <v>       1.00000000 </v>
   </varray>
  </kpoints>
  <time name="totalsc">   12.68   12.81</time>
 </calculation>
 <calculation>
  <scstep>
   <time name="dav">    0.23    0.23</time>
   <time name="total">    0.61    0.61</time>
   <energy>
    <i name="alphaZ">      0.81223224 </i>
    <i name="ewald">    146.08268399 </i>
    <i name="hartreedc">   -639.22988564 </i>
    <i name="XCdc">     42.15647019 </i>
    <i name="pawpsdc">    991.15603032 </i>
    <i name="pawaedc">   -992.10995032 </i>
    <i name="eentropy">      0.01023026 </i>
    <i name="bandstr">   -165.13027204 </i>
    <i name="atom">    593.94817731 </i>
    <i name="e_fr_energy">    -22.30428371 </i>
    <i name="e_wo_entrp">    -22.31451397 </i>
    <i name="e_0_energy">    -22.30684127 </i>
   </energy>
  </scstep>
  <scstep>
   <time name="diag">    0.04    0.04</time>
   <time name="diis">    0.18    0.18</time>
   <time name="orth">    0.00    0.00</time>
   <time name="total">    0.60    0.60</time>
   <energy>
    <i name="e_fr_energy">    -22.30423729 </i>
    <i name="e_wo_entrp">    -22.31415964 </i>
    <i name="e_0_energy">    -22.30671788 </i>
   </energy>
  </scstep>
  <scstep>
   <time name="diag">    0.04    0.04</time>
   <time name="diis">    0.16    0.16</time>
   <time name="orth">    0.00    0.00</time>
   <time name="total">    0.51    0.52</time>
   <energy>
    <i name="alphaZ">      0.81223224 </i>
    <i name="ewald">    146.08268399 </i>
    <i name="hartreedc">   -639.24198771 </i>
    <i name="XCdc">     42.15311306 </i>
    <i name="pawpsdc">    996.00044147 </i>
    <i name="pawaedc">   -996.95563127 </i>
    <i name="eentropy">      0.01112664 </i>
    <i name="bandstr">   -165.11432051 </i>
    <i name="atom">    593.94817731 </i>
    <i name="e_fr_energy">    -22.30416479 </i>
    <i name="e_wo_entrp">    -22.31529143 </i>
    <i name="e_0_energy">    -22.30694645 </i>
   </energy>
  </scstep>
  <dipole>
   <v name="dipole">      0.00000000       0.00000000       0.00001077 </v>
   <i name="Tr[quadrupol]">   -531.42370775 </i>
   <i name="Echarged">      0.00000000 </i>
   <i name="Edipol_quadrupol">      0.00000000 </i>
   <i name="Eion">      0.00000000 </i>
  </dipole>
  <structure>
   <crystal>
    <varray name="basis" >
     <v>      10.00000000       0.00000000       0.00000000 </v>
     <v>       0.00000000      10.00000000       0.00000000 </v>
     <v>       0.00000000       0.00000000      10.00000000 </v>
    </varray>
    <i name="volume">   1000.00000000 </i>
    <varray name="rec_basis" >
     <v>       0.10000000       0.00000000       0.00000000 </v>
     <v>       0.00000000       0.10000000       0.00000000 </v>
     <v>       0.00000000       0.00000000       0.10000000 </v>
    </varray>
   </crystal>
   <varray name="positions" >
    <v>       0.43050300       0.47713450       0.49666800 </v>
    <v>       0.60620000       0.47713450       0.49666800 </v>
    <v>       0.39380000       0.43140350       0.58920400 </v>
    <v>       0.39380000       0.41986150       0.41079600 </v>
    <v>       0.39380000       0.58013850       0.49000400 </v>
   </varray>
  </structure>
  <varray name="forces" >
   <v>      -0.38407507       0.00004365      -0.00059553 </v>
   <v>       0.43301975      -0.00095868      -0.00066959 </v>
   <v>      -0.01506604      -0.09651793       0.19652137 </v>
   <v>      -0.01445645      -0.11963392      -0.18080206 </v>
   <v>      -0.01942218       0.21706688      -0.01445419 </v>
  </varray>
  <varray name="stress" >
   <v>      -1.29231389       0.00570382       0.00202626 </v>
   <v>       0.00570382      -2.72509357       0.01006803 </v>
   <v>       0.00202627       0.01006803      -2.74371295 </v>
  </varray>
  <energy>
   <i name="e_fr_energy">    -22.30416479 </i>
   <i name="e_wo_entrp">    -22.30694645 </i>
   <i name="e_0_energy">      0.01112664 </i>
  </energy>
  <kpoints>
   <generation param="Gamma">
    <v type="int" name="divisions">       1        1        1 </v>
    <v name="usershift">      0.00000000       0.00000000       0.00000000 </v>
    <v name="genvec1">      1.00000000       0.00000000       0.00000000 </v>
    <v name="genvec2">      0.00000000       1.00000000       0.00000000 </v>
    <v name="genvec3">      0.00000000       0.00000000       1.00000000 </v>
    <v name="shift">      0.00000000       0.00000000       0.00000000 </v>
   </generation>
   <varray name="kpointlist" >
    <v>       0.00000000       0.00000000       0.00000000 </v>
   </varray>
   <varray name="weights" >
    <v>       1.00000000 </v>
   </varray>
  </kpoints>
  <time name="totalsc">    2.85    2.87</time>
 </calculation>
 <calculation>
  <scstep>
   <time name="dav">    0.17    0.17</time>
   <time name="total">    0.55    0.55</time>
   <energy>
    <i name="alphaZ">      0.81223224 </i>
    <i name="ewald">    144.50710850 </i>
    <i name="hartreedc">   -637.73297358 </i>
    <i name="XCdc">     42.13774428 </i>
    <i name="pawpsdc">    996.06622325 </i>
    <i name="pawaedc">   -997.02160943 </i>
    <i name="eentropy">      0.00943958 </i>
    <i name="bandstr">   -165.03184981 </i>
    <i name="atom">    593.94817731 </i>
    <i name="e_fr_energy">    -22.30550765 </i>
    <i name="e_wo_entrp">    -22.31494723 </i>
    <i name="e_0_energy">    -22.30786755 </i>
   </energy>
  </scstep>
  <scstep>
   <time name="diag">    0.04    0.04</time>
   <time name="diis">    0.18    0.19</time>
   <time name="orth">    0.00    0.00</time>
   <time name="total">    0.60    0.61</time>
   <energy>
    <i name="e_fr_energy">    -22.30535215 </i>
    <i name="e_wo_entrp">    -22.31739116 </i>
    <i name="e_0_energy">    -22.30836190 </i>
   </energy>
  </scstep>
  <scstep>
   <time name="diag">    0.04    0.04</time>
   <time name="diis">    0.18    0.19</time>
   <time name="orth">    0.00    0.00</time>
   <time name="total">    0.61    0.61</time>
   <energy>
    <i name="e_fr_energy">    -22.30229196 </i>
    <i name="e_wo_entrp">    -22.30628591 </i>
    <i name="e_0_energy">    -22.30329045 </i>
   </energy>
  </scstep>
  <scstep>
   <time name="diag">    0.04    0.04</time>
   <time name="diis">    0.18    0.18</time>
   <time name="orth">    0.00    0.00</time>
   <time name="total">    0.60    0.60</time>
   <energy>
    <i name="e_fr_energy">    -22.30551831 </i>
    <i name="e_wo_entrp">    -22.31510859 </i>
    <i name="e_0_energy">    -22.30791588 </i>
   </energy>
  </scstep>
  <scstep>
   <time name="diag">    0.04    0.04</time>
   <time name="diis">    0.16    0.16</time>
   <time name="orth">    0.00    0.00</time>
   <time name="total">    0.52    0.52</time>
   <energy>
    <i name="alphaZ">      0.81223224 </i>
    <i name="ewald">    144.50710850 </i>
    <i name="hartreedc">   -637.71278885 </i>
    <i name="XCdc">     42.14511808 </i>
    <i name="pawpsdc">    986.42547594 </i>
    <i name="pawaedc">   -987.37729345 </i>
    <i name="eentropy">      0.01074756 </i>
    <i name="bandstr">   -165.06435741 </i>
    <i name="atom">    593.94817731 </i>
    <i name="e_fr_energy">    -22.30558010 </i>
    <i name="e_wo_entrp">    -22.31632766 </i>
    <i name="e_0_energy">    -22.30826699 </i>
   </energy>
  </scstep>
  <dipole>
   <v name="dipole">      0.00000000       0.00000000       0.00000528 </v>
   <i name="Tr[quadrupol]">   -530.73678464 </i>
   <i name="Echarged">      0.00000000 </i>
   <i name="Edipol_quadrupol">      0.00000000 </i>
   <i name="Eion">      0.00000000 </i>
  </dipole>
  <structure>
   <crystal>
    <varray name="basis" >
     <v>      10.00000000       0.00000000       0.00000000 </v>
     <v>       0.00000000      10.00000000       0.00000000 </v>
     <v>       0.00000000       0.00000000      10.00000000 </v>
    </varray>
    <i name="volume">   1000.00000000 </i>
    <varray name="rec_basis" >
     <v>       0.10000000       0.00000000       0.00000000 </v>
     <v>       0.00000000       0.10000000       0.00000000 </v>
     <v>       0.00000000       0.00000000       0.10000000 </v>
    </varray>
   </crystal>
   <varray name="positions" >
    <v>       0.42850300       0.47713450       0.49666800 </v>
    <v>       0.60620000       0.47713450       0.49666800 </v>
    <v>       0.39380000       0.43140350       0.58920400 </v>
    <v>       0.39380000       0.41986150       0.41079600 </v>
    <v>       0.39380000       0.58013850       0.49000400 </v>
   </varray>
  </structure>
  <varray name="forces" >
   <v>       0.24217053       0.00577545       0.01881707 </v>
   <v>       0.14199315      -0.00225281      -0.00403552 </v>
   <v>      -0.12675761      -0.16412181       0.32404357 </v>
   <v>      -0.12620293      -0.20282203      -0.30893279 </v>
   <v>      -0.13120313       0.36342120      -0.02989233 </v>
  </varray>
  <varray name="stress" >
   <v>      -1.95288818       0.00827098       0.00732860 </v>
   <v>       0.00827097      -2.37571906       0.06888483 </v>
   <v>       0.00732859       0.06888482      -2.38549403 </v>
  </varray>
  <energy>
   <i name="e_fr_energy">    -22.30558010 </i>
   <i name="e_wo_entrp">    -22.30826699 </i>
   <i name="e_0_energy">      0.01074756 </i>
  </energy>
  <kpoints>
   <generation param="Gamma">
    <v type="int" name="divisions">       1        1        1 </v>
    <v name="usershift">      0.00000000       0.00000000       0.00000000 </v>
    <v name="genvec1">      1.00000000       0.00000000       0.00000000 </v>
    <v name="genvec2">      0.00000000       1.00000000       0.00000000 </v>
    <v name="genvec3">      0.00000000       0.00000000       1.00000000 </v>
    <v name="shift">      0.00000000       0.00000000       0.00000000 </v>
   </generation>
   <varray name="kpointlist" >
    <v>       0.00000000       0.00000000       0.00000000 </v>
   </varray>
   <varray name="weights" >
    <v>       1.00000000 </v>
   </varray>
  </kpoints>
  <time name="totalsc">    4.01    4.03</time>
 </calculation>
 <calculation>
  <scstep>
   <time name="dav">    0.17    0.17</time>
   <time name="total">    0.55    0.55</time>
   <energy>
    <i name="alphaZ">      0.81223224 </i>
    <i name="ewald">    145.29057461 </i>
    <i name="hartreedc">   -638.46240378 </i>
    <i name="XCdc">     42.15275585 </i>
    <i name="pawpsdc">    986.34514441 </i>
    <i name="pawaedc">   -987.29696168 </i>
    <i name="eentropy">      0.00954503 </i>
    <i name="bandstr">   -165.10313483 </i>
    <i name="atom">    593.94817731 </i>
    <i name="e_fr_energy">    -22.30407084 </i>
    <i name="e_wo_entrp">    -22.31361587 </i>
    <i name="e_0_energy">    -22.30645710 </i>
   </energy>
  </scstep>
  <scstep>
   <time name="diag">    0.04    0.04</time>
   <time name="diis">    0.18    0.19</time>
   <time name="orth">    0.00    0.00</time>
   <time name="total">    0.60    0.61</time>
   <energy>
    <i name="e_fr_energy">    -22.30383713 </i>
    <i name="e_wo_entrp">    -22.31576543 </i>
    <i name="e_0_energy">    -22.30681920 </i>
   </energy>
  </scstep>
  <scstep>
   <time name="diag">    0.04    0.04</time>
   <time name="diis">    0.18    0.19</time>
   <time name="orth">    0.00    0.00</time>
   <time name="total">    0.61    0.61</time>
   <energy>
    <i name="e_fr_energy">    -22.30239572 </i>
    <i name="e_wo_entrp">    -22.30754027 </i>
    <i name="e_0_energy">    -22.30368186 </i>
   </energy>
  </scstep>
  <scstep>
   <time name="diag">    0.04    0.04</time>
   <time name="diis">    0.18    0.18</time>
   <time name="orth">    0.00    0.00</time>
   <time name="total">    0.60    0.60</time>
   <energy>
    <i name="e_fr_energy">    -22.30395592 </i>
    <i name="e_wo_entrp">    -22.31407114 </i>
    <i name="e_0_energy">    -22.30648472 </i>
   </energy>
  </scstep>
  <scstep>
   <time name="diag">    0.04    0.04</time>
   <time name="diis">    0.16    0.16</time>
   <time name="orth">    0.00    0.00</time>
   <time name="total">    0.52    0.52</time>
   <energy>
    <i name="alphaZ">      0.81223224 </i>
    <i name="ewald">    145.29057461 </i>
    <i name="hartreedc">   -638.48638329 </i>
    <i name="XCdc">     42.14978646 </i>
    <i name="pawpsdc">    990.98094906 </i>
    <i name="pawaedc">   -991.93426272 </i>
    <i name="eentropy">      0.00990345 </i>
    <i name="bandstr">   -165.07492955 </i>
    <i name="atom">    593.94817731 </i>
    <i name="e_fr_energy">    -22.30395243 </i>
    <i name="e_wo_entrp">    -22.31385588 </i>
    <i name="e_0_energy">    -22.30642829 </i>
   </energy>
  </scstep>
  <dipole>
   <v name="dipole">      0.00000000       0.00000000     -56.60892594 </v>
   <i name="Tr[quadrupol]">   -652.77937195 </i>
   <i name="Echarged">      0.00000000 </i>
   <i name="Edipol_quadrupol">      0.00000000 </i>
   <i name="Eion">      0.00000000 </i>
  </dipole>
  <structure>
   <crystal>
    <varray name="basis" >
     <v>      10.00000000       0.00000000       0.00000000 </v>
     <v>       0.00000000      10.00000000       0.00000000 </v>
     <v>       0.00000000       0.00000000      10.00000000 </v>
    </varray>
    <i name="volume">   1000.00000000 </i>
    <varray name="rec_basis" >
     <v>       0.10000000       0.00000000       0.00000000 </v>
     <v>       0.00000000       0.10000000       0.00000000 </v>
     <v>       0.00000000       0.00000000       0.10000000 </v>
    </varray>
   </crystal>
   <varray name="positions" >
    <v>       0.42950300       0.47813450       0.49666800 </v>
    <v>       0.60620000       0.47713450       0.49666800 </v>
    <v>       0.39380000       0.43140350       0.58920400 </v>
    <v>       0.39380000       0.41986150       0.41079600 </v>
    <v>       0.39380000       0.58013850       0.49000400 </v>
   </varray>
  </structure>
  <varray name="forces" >
   <v>      -0.05960528      -0.50888034      -0.05734758 </v>
   <v>       0.28638209       0.02671630       0.00898840 </v>
   <v>      -0.04026092      -0.04180653       0.18678378 </v>
   <v>      -0.03031872      -0.04947024      -0.12169660 </v>
   <v>      -0.15619717       0.57344080      -0.01672800 </v>
  </varray>
  <varray name="stress" >
   <v>      -1.63984076      -0.18808583      -0.01642057 </v>
   <v>      -0.18808585      -2.23743915      -0.25205698 </v>
   <v>      -0.01642056      -0.25205700      -2.88788158 </v>
  </varray>
  <energy>
   <i name="e_fr_energy">    297.86730527 </i>
   <i name="e_wo_entrp">    297.86482941 </i>
   <i name="e_0_energy">      0.00990345 </i>
  </energy>
  <kpoints>
   <generation param="Gamma">
    <v type="int" name="divisions">       1        1        1 </v>
    <v name="usershift">      0.00000000       0.00000000       0.00000000 </v>
    <v name="genvec1">      1.00000000       0.00000000       0.00000000 </v>
    <v name="genvec2">      0.00000000       1.00000000       0.00000000 </v>
    <v name="genvec3">      0.00000000       0.00000000       1.00000000 </v>
    <v name="shift">      0.00000000       0.00000000       0.00000000 </v>
   </generation>
   <varray name="kpointlist" >
    <v>       0.00000000       0.00000000       0.00000000 </v>
   </varray>
   <varray name="weights" >
    <v>       1.00000000 </v>
   </varray>
  </kpoints>
  <time name="totalsc">    4.01    4.03</time>
 </calculation>
 <calculation>
  <scstep>
   <time name="dav">    0.17    0.17</time>
   <time name="total">    0.55    0.55</time>
   <energy>
    <i name="alphaZ">      0.81223224 </i>
    <i name="ewald">    145.29074088 </i>
    <i name="hartreedc">   -638.48504278 </i>
    <i name="XCdc">     42.14978408 </i>
    <i name="pawpsdc">    990.96546583 </i>
    <i name="pawaedc">   -991.91875050 </i>
    <i name="eentropy">      0.00824887 </i>
    <i name="bandstr">   -165.07533248 </i>
    <i name="atom">    593.94817731 </i>
    <i name="e_fr_energy">    -22.30447657 </i>
    <i name="e_wo_entrp">    -22.31272544 </i>
    <i name="e_0_energy">    -22.30653879 </i>
   </energy>
  </scstep>
  <scstep>
   <time name="diag">    0.04    0.04</time>
   <time name="diis">    0.19    0.19</time>
   <time name="orth">    0.00    0.00</time>
   <time name="total">    0.60    0.61</time>
   <energy>
    <i name="e_fr_energy">    -22.30290444 </i>
    <i name="e_wo_entrp">    -22.31550076 </i>
    <i name="e_0_energy">    -22.30605352 </i>
   </energy>
  </scstep>
  <scstep>
   <time name="diag">    0.04    0.04</time>
   <time name="diis">    0.18    0.19</time>
   <time name="orth">    0.00    0.00</time>
   <time name="total">    0.61    0.61</time>
   <energy>
    <i name="e_fr_energy">    -22.30380999 </i>
    <i name="e_wo_entrp">    -22.31565904 </i>
    <i name="e_0_energy">    -22.30677225 </i>
   </energy>
  </scstep>
  <scstep>
   <time name="diag">    0.04    0.04</time>
   <time name="diis">    0.18    0.19</time>
   <time name="orth">    0.00    0.00</time>
   <time name="total">    0.60    0.61</time>
   <energy>
    <i name="e_fr_energy">    -22.30329594 </i>
    <i name="e_wo_entrp">    -22.30982753 </i>
    <i name="e_0_energy">    -22.30492884 </i>
   </energy>
  </scstep>
  <scstep>
   <time name="diag">    0.04    0.04</time>
   <time name="diis">    0.18    0.18</time>
   <time name="orth">    0.00    0.00</time>
   <time name="total">    0.60    0.61</time>
   <energy>
    <i name="e_fr_energy">    -22.30403931 </i>
    <i name="e_wo_entrp">    -22.31405411 </i>
    <i name="e_0_energy">    -22.30654301 </i>
   </energy>
  </scstep>
  <scstep>
   <time name="diag">    0.04    0.04</time>
   <time name="diis">    0.16    0.16</time>
   <time name="orth">    0.00    0.00</time>
   <time name="total">    0.52    0.52</time>
   <energy>
    <i name="alphaZ">      0.81223224 </i>
    <i name="ewald">    145.29074088 </i>
    <i name="hartreedc">   -638.47172389 </i>
    <i name="XCdc">     42.14855986 </i>
    <i name="pawpsdc">    991.14975900 </i>
    <i name="pawaedc">   -992.10356509 </i>
    <i name="eentropy">      0.01061733 </i>
    <i name="bandstr">   -165.08889168 </i>
    <i name="atom">    593.94817731 </i>
    <i name="e_fr_energy">    -22.30409405 </i>
    <i name="e_wo_entrp">    -22.31471138 </i>
    <i name="e_0_energy">    -22.30674838 </i>
   </energy>
  </scstep>
  <dipole>
   <v name="dipole">      0.00000000       0.00000000      -0.06233739 </v>
   <i name="Tr[quadrupol]">   -530.90543718 </i>
   <i name="Echarged">      0.00000000 </i>
   <i name="Edipol_quadrupol">      0.00000000 </i>
   <i name="Eion">      0.00000000 </i>
  </dipole>
  <structure>
   <crystal>
    <varray name="basis" >
     <v>      10.00000000       0.00000000       0.00000000 </v>
     <v>       0.00000000      10.00000000       0.00000000 </v>
     <v>       0.00000000       0.00000000      10.00000000 </v>
    </varray>
    <i name="volume">   1000.00000000 </i>
    <varray name="rec_basis" >
     <v>       0.10000000       0.00000000       0.00000000 </v>
     <v>       0.00000000       0.10000000       0.00000000 </v>
     <v>       0.00000000       0.00000000       0.10000000 </v>
    </varray>
   </crystal>
   <varray name="positions" >
    <v>       0.42950300       0.47613450       0.49666800 </v>
    <v>       0.60620000       0.47713450       0.49666800 </v>
    <v>       0.39380000       0.43140350       0.58920400 </v>
    <v>       0.39380000       0.41986150       0.41079600 </v>
    <v>       0.39380000       0.58013850       0.49000400 </v>
   </varray>
  </structure>
  <varray name="forces" >
   <v>      -0.06278586       0.48406686       0.04080241 </v>
   <v>       0.28858447      -0.02718317      -0.00722028 </v>
   <v>      -0.10707206      -0.21260406       0.34825566 </v>
   <v>      -0.11651368      -0.26781425      -0.36506660 </v>
   <v>      -0.00221286       0.02353462      -0.01677120 </v>
  </varray>
  <varray name="stress" >
   <v>      -1.62657204       0.20521439       0.01303370 </v>
   <v>       0.20521436      -2.88403644       0.18645145 </v>
   <v>       0.01303372       0.18645143      -2.25462971 </v>
  </varray>
  <energy>
   <i name="e_fr_energy">    -22.30370580 </i>
   <i name="e_wo_entrp">    -22.30636013 </i>
   <i name="e_0_energy">      0.01061733 </i>
  </energy>
  <kpoints>
   <generation param="Gamma">
    <v type="int" name="divisions">       1        1        1 </v>
    <v name="usershift">      0.00000000       0.00000000       0.00000000 </v>
    <v name="genvec1">      1.00000000       0.00000000       0.00000000 </v>
    <v name="genvec2">      0.00000000       1.00000000       0.00000000 </v>
    <v name="genvec3">      0.00000000       0.00000000       1.00000000 </v>
    <v name="shift">      0.00000000       0.00000000       0.00000000 </v>
   </generation>
   <varray name="kpointlist" >
    <v>       0.00000000       0.00000000       0.00000000 </v>
   </varray>
   <varray name="weights" >
    <v>       1.00000000 </v>
   </varray>
  </kpoints>
  <time name="totalsc">    4.62    4.65</time>
 </calculation>
 <calculation>
  <scstep>
   <time name="dav">    0.17    0.17</time>
   <time name="total">    0.55    0.55</time>
   <energy>
    <i name="alphaZ">      0.81223224 </i>
    <i name="ewald">    145.29063978 </i>
    <i name="hartreedc">   -638.46975601 </i>
    <i name="XCdc">     42.14848087 </i>
    <i name="pawpsdc">    991.14626157 </i>
    <i name="pawaedc">   -992.10006299 </i>
    <i name="eentropy">      0.01002759 </i>
    <i name="bandstr">   -165.09015428 </i>
    <i name="atom">    593.94817731 </i>
    <i name="e_fr_energy">    -22.30415392 </i>
    <i name="e_wo_entrp">    -22.31418151 </i>
    <i name="e_0_energy">    -22.30666081 </i>
   </energy>
  </scstep>
  <scstep>
   <time name="diag">    0.04    0.04</time>
   <time name="diis">    0.19    0.19</time>
   <time name="orth">    0.00    0.00</time>
   <time name="total">    0.61    0.61</time>
   <energy>
    <i name="e_fr_energy">    -22.30323183 </i>
    <i name="e_wo_entrp">    -22.31231666 </i>
    <i name="e_0_energy">    -22.30550303 </i>
   </energy>
  </scstep>
  <scstep>
   <time name="diag">    0.04    0.04</time>
   <time name="diis">    0.18    0.19</time>
   <time name="orth">    0.00    0.00</time>
   <time name="total">    0.60    0.61</time>
   <energy>
    <i name="e_fr_energy">    -22.30354173 </i>
    <i name="e_wo_entrp">    -22.31138893 </i>
    <i name="e_0_energy">    -22.30550353 </i>
   </energy>
  </scstep>
  <scstep>
   <time name="diag">    0.04    0.04</time>
   <time name="diis">    0.18    0.18</time>
   <time name="orth">    0.00    0.00</time>
   <time name="total">    0.60    0.60</time>
   <energy>
    <i name="e_fr_energy">    -22.30451845 </i>
    <i name="e_wo_entrp">    -22.31430313 </i>
    <i name="e_0_energy">    -22.30696462 </i>
   </energy>
  </scstep>
  <scstep>
   <time name="diag">    0.04    0.04</time>
   <time name="diis">    0.17    0.17</time>
   <time name="orth">    0.00    0.00</time>
   <time name="total">    0.59    0.60</time>
   <energy>
    <i name="e_fr_energy">    -22.30308717 </i>
    <i name="e_wo_entrp">    -22.31361342 </i>
    <i name="e_0_energy">    -22.30571873 </i>
   </energy>
  </scstep>
  <scstep>
   <time name="diag">    0.04    0.04</time>
   <time name="diis">    0.17    0.17</time>
   <time name="orth">    0.00    0.00</time>
   <time name="total">    0.59    0.59</time>
   <energy>
    <i name="e_fr_energy">    -22.30330992 </i>
    <i name="e_wo_entrp">    -22.31293158 </i>
    <i name="e_0_energy">    -22.30571534 </i>
   </energy>
  </scstep>
  <scstep>
   <time name="diag">    0.04    0.04</time>
   <time name="diis">    0.17    0.17</time>
   <time name="orth">    0.00    0.00</time>
   <time name="total">    0.59    0.59</time>
   <energy>
    <i name="e_fr_energy">    -22.30343040 </i>
    <i name="e_wo_entrp">    -22.31382839 </i>
    <i name="e_0_energy">    -22.30602990 </i>
   </energy>
  </scstep>
  <scstep>
   <time name="diag">    0.04    0.04</time>
   <time name="diis">    0.18    0.18</time>
   <time name="orth">    0.00    0.00</time>
   <time name="total">    0.60    0.60</time>
   <energy>
    <i name="e_fr_energy">    -22.30356982 </i>
    <i name="e_wo_entrp">    -22.31228425 </i>
    <i name="e_0_energy">    -22.30574843 </i>
   </energy>
  </scstep>
  <scstep>
   <time name="diag">    0.04    0.04</time>
   <time name="diis">    0.16    0.16</time>
   <time name="orth">    0.00    0.00</time>
   <time name="total">    0.58    0.58</time>
   <energy>
    <i name="e_fr_energy">    -22.30370695 </i>
    <i name="e_wo_entrp">    -22.31264948 </i>
    <i name="e_0_energy">    -22.30594258 </i>
   </energy>
  </scstep>
  <scstep>
   <time name="diag">    0.04    0.04</time>
   <time name="diis">    0.16    0.16</time>
   <time name="orth">    0.00    0.00</time>
   <time name="total">    0.52    0.52</time>
   <energy>
    <i name="alphaZ">      0.81223224 </i>
    <i name="ewald">    145.29063978 </i>
    <i name="hartreedc">   -638.47052246 </i>
    <i name="XCdc">     42.14869549 </i>
    <i name="pawpsdc">    991.21760118 </i>
    <i name="pawaedc">   -992.17150207 </i>
    <i name="eentropy">      0.00868417 </i>
    <i name="bandstr">   -165.08779281 </i>
    <i name="atom">    593.94817731 </i>
    <i name="e_fr_energy">    -22.30378719 </i>
    <i name="e_wo_entrp">    -22.31247136 </i>
    <i name="e_0_energy">    -22.30595824 </i>
   </energy>
  </scstep>
  <dipole>
   <v name="dipole">      0.00000000       0.00000000      -0.00181762 </v>
   <i name="Tr[quadrupol]">   -531.08772414 </i>
   <i name="Echarged">      0.00000000 </i>
   <i name="Edipol_quadrupol">      0.00000000 </i>
   <i name="Eion">      0.00000000 </i>
  </dipole>
  <structure>
   <crystal>
    <varray name="basis" >
     <v>      10.00000000       0.00000000       0.00000000 </v>
     <v>       0.00000000      10.00000000       0.00000000 </v>
     <v>       0.00000000       0.00000000      10.00000000 </v>
    </varray>
    <i name="volume">   1000.00000000 </i>
    <varray name="rec_basis" >
     <v>       0.10000000       0.00000000       0.00000000 </v>
     <v>       0.00000000       0.10000000       0.00000000 </v>
     <v>       0.00000000       0.00000000       0.10000000 </v>
    </varray>
   </crystal>
   <varray name="positions" >
    <v>       0.42950300       0.47713450       0.49766800 </v>
    <v>       0.60620000       0.47713450       0.49666800 </v>
    <v>       0.39380000       0.43140350       0.58920400 </v>
    <v>       0.39380000       0.41986150       0.41079600 </v>
    <v>       0.39380000       0.58013850       0.49000400 </v>
   </varray>
  </structure>
  <varray name="forces" >
   <v>      -0.06008106       0.08488369      -0.44785275 </v>
   <v>       0.28642282      -0.01502529       0.01748762 </v>
   <v>      -0.14426512      -0.25303820       0.48008114 </v>
   <v>      -0.00919210      -0.07399991      -0.05340438 </v>
   <v>      -0.07288455       0.25717972       0.00368836 </v>
  </varray>
  <varray name="stress" >
   <v>      -1.63345547       0.01542933      -0.18590002 </v>
   <v>       0.01542932      -2.68811774      -0.25563722 </v>
   <v>      -0.18589996      -0.25563718      -2.44245405 </v>
  </varray>
  <energy>
   <i name="e_fr_energy">    -22.30378686 </i>
   <i name="e_wo_entrp">    -22.30595791 </i>
   <i name="e_0_energy">      0.00868417 </i>
  </energy>
  <kpoints>
   <generation param="Gamma">
    <v type="int" name="divisions">       1        1        1 </v>
    <v name="usershift">      0.00000000       0.00000000       0.00000000 </v>
    <v name="genvec1">      1.00000000       0.00000000       0.00000000 </v>
    <v name="genvec2">      0.00000000       1.00000000       0.00000000 </v>
    <v name="genvec3">      0.00000000       0.00000000       1.00000000 </v>
    <v name="shift">      0.00000000       0.00000000       0.00000000 </v>
   </generation>
   <varray name="kpointlist" >
    <v>       0.00000000       0.00000000       0.00000000 </v>
   </varray>
   <varray name="weights" >
    <v>       1.00000000 </v>
   </varray>
  </kpoints>
  <time name="totalsc">    6.97    7.02</time>
 </calculation>
 <calculation>
  <scstep>
   <time name="dav">    0.17    0.17</time>
   <time name="total">    0.55    0.56</time>
   <energy>
    <i name="alphaZ">      0.81223224 </i>
    <i name="ewald">    145.29067571 </i>
    <i name="hartreedc">   -638.46539002 </i>
    <i name="XCdc">     42.14830128 </i>
    <i name="pawpsdc">    991.22409410 </i>
    <i name="pawaedc">   -992.17799298 </i>
    <i name="eentropy">      0.00816661 </i>
    <i name="bandstr">   -165.09283231 </i>
    <i name="atom">    593.94817731 </i>
    <i name="e_fr_energy">    -22.30456807 </i>
    <i name="e_wo_entrp">    -22.31273468 </i>
    <i name="e_0_energy">    -22.30660973 </i>
   </energy>
  </scstep>
  <scstep>
   <time name="diag">    0.04    0.04</time>
   <time name="diis">    0.18    0.19</time>
   <time name="orth">    0.00    0.00</time>
   <time name="total">    0.61    0.61</time>
   <energy>
    <i name="e_fr_energy">    -22.30403040 </i>
    <i name="e_wo_entrp">    -22.31250632 </i>
    <i name="e_0_energy">    -22.30614938 </i>
   </energy>
  </scstep>
  <scstep>
   <time name="diag">    0.04    0.04</time>
   <time name="diis">    0.18    0.18</time>
   <time name="orth">    0.00    0.00</time>
   <time name="total">    0.61    0.61</time>
   <energy>
    <i name="e_fr_energy">    -22.30350602 </i>
    <i name="e_wo_entrp">    -22.31524014 </i>
    <i name="e_0_energy">    -22.30643955 </i>
   </energy>
  </scstep>
  <scstep>
   <time name="diag">    0.04    0.04</time>
   <time name="diis">    0.16    0.16</time>
   <time name="orth">    0.00    0.00</time>
   <time name="total">    0.56    0.61</time>
   <energy>
    <i name="e_fr_energy">    -22.30334960 </i>
    <i name="e_wo_entrp">    -22.31521643 </i>
    <i name="e_0_energy">    -22.30631631 </i>
   </energy>
  </scstep>
  <scstep>
   <time name="diag">    0.04    0.04</time>
   <time name="diis">    0.18    0.19</time>
   <time name="orth">    0.00    0.00</time>
   <time name="total">    0.61    0.61</time>
   <energy>
    <i name="e_fr_energy">    -22.30315632 </i>
    <i name="e_wo_entrp">    -22.31039215 </i>
    <i name="e_0_energy">    -22.30496527 </i>
   </energy>
  </scstep>
  <scstep>
   <time name="diag">    0.04    0.04</time>
   <time name="diis">    0.18    0.18</time>
   <time name="orth">    0.00    0.00</time>
   <time name="total">    0.60    0.61</time>
   <energy>
    <i name="e_fr_energy">    -22.30157664 </i>
    <i name="e_wo_entrp">    -22.30959804 </i>
    <i name="e_0_energy">    -22.30358199 </i>
   </energy>
  </scstep>
  <scstep>
   <time name="diag">    0.04    0.04</time>
   <time name="diis">    0.16    0.16</time>
   <time name="orth">    0.00    0.00</time>
   <time name="total">    0.58    0.59</time>
   <energy>
    <i name="e_fr_energy">    -22.30168858 </i>
    <i name="e_wo_entrp">    -22.30984424 </i>
    <i name="e_0_energy">    -22.30372750 </i>
   </energy>
  </scstep>
  <scstep>
   <time name="diag">    0.04    0.04</time>
   <time name="diis">    0.18    0.18</time>
   <time name="orth">    0.00    0.00</time>
   <time name="total">    0.60    0.61</time>
   <energy>
    <i name="e_fr_energy">    -22.30250847 </i>
    <i name="e_wo_entrp">    -22.31035028 </i>
    <i name="e_0_energy">    -22.30446892 </i>
   </energy>
  </scstep>
  <scstep>
   <time name="diag">    0.04    0.04</time>
   <time name="diis">    0.16    0.17</time>
   <time name="orth">    0.00    0.00</time>
   <time name="total">    0.58    0.59</time>
   <energy>
    <i name="e_fr_energy">    -22.30221442 </i>
    <i name="e_wo_entrp">    -22.31017403 </i>
    <i name="e_0_energy">    -22.30420432 </i>
   </energy>
  </scstep>
  <scstep>
   <time name="diag">    0.04    0.04</time>
   <time name="diis">    0.17    0.17</time>
   <time name="orth">    0.00    0.00</time>
   <time name="total">    0.59    0.59</time>
   <energy>
    <i name="e_fr_energy">    -22.30301136 </i>
    <i name="e_wo_entrp">    -22.31045059 </i>
    <i name="e_0_energy">    -22.30487117 </i>
   </energy>
  </scstep>
  <scstep>
   <time name="diag">    0.04    0.04</time>
   <time name="diis">    0.16    0.16</time>
   <time name="orth">    0.00    0.00</time>
   <time name="total">    0.58    0.59</time>
   <energy>
    <i name="e_fr_energy">    -22.30314568 </i>
    <i name="e_wo_entrp">    -22.31056052 </i>
    <i name="e_0_energy">    -22.30499939 </i>
   </energy>
  </scstep>
  <scstep>
   <time name="diag">    0.04    0.04</time>
   <time name="diis">    0.17    0.17</time>
   <time name="orth">    0.00    0.00</time>
   <time name="total">    0.59    0.60</time>
   <energy>
    <i name="e_fr_energy">    -22.30296816 </i>
    <i name="e_wo_entrp">    -22.31037464 </i>
    <i name="e_0_energy">    -22.30481978 </i>
   </energy>
  </scstep>
  <scstep>
   <time name="diag">    0.04    0.04</time>
   <time name="diis">    0.17    0.17</time>
   <time name="orth">    0.00    0.00</time>
   <time name="total">    0.59    0.60</time>
   <energy>
    <i name="e_fr_energy">    -22.30271688 </i>
    <i name="e_wo_entrp">    -22.31025566 </i>
    <i name="e_0_energy">    -22.30460157 </i>
   </energy>
  </scstep>
  <scstep>
   <time name="diag">    0.04    0.04</time>
   <time name="diis">    0.18    0.18</time>
   <time name="orth">    0.00    0.00</time>
   <time name="total">    0.60    0.61</time>
   <energy>
    <i name="e_fr_energy">    -22.30409710 </i>
    <i name="e_wo_entrp">    -22.31355510 </i>
    <i name="e_0_energy">    -22.30646160 </i>
   </energy>
  </scstep>
  <scstep>
   <time name="diag">    0.04    0.04</time>
   <time name="diis">    0.17    0.17</time>
   <time name="orth">    0.00    0.00</time>
   <time name="total">    0.60    0.60</time>
   <energy>
    <i name="e_fr_energy">    -22.30289944 </i>
    <i name="e_wo_entrp">    -22.31407442 </i>
    <i name="e_0_energy">    -22.30569319 </i>
   </energy>
  </scstep>
  <scstep>
   <time name="diag">    0.04    0.04</time>
   <time name="diis">    0.18    0.18</time>
   <time name="orth">    0.00    0.00</time>
   <time name="total">    0.60    0.61</time>
   <energy>
    <i name="e_fr_energy">    -22.30314852 </i>
    <i name="e_wo_entrp">    -22.31425109 </i>
    <i name="e_0_energy">    -22.30592416 </i>
   </energy>
  </scstep>
  <scstep>
   <time name="diag">    0.04    0.04</time>
   <time name="diis">    0.17    0.17</time>
   <time name="orth">    0.00    0.00</time>
   <time name="total">    0.60    0.60</time>
   <energy>
    <i name="e_fr_energy">    -22.30299967 </i>
    <i name="e_wo_entrp">    -22.31320635 </i>
    <i name="e_0_energy">    -22.30555134 </i>
   </energy>
  </scstep>
  <scstep>
   <time name="diag">    0.04    0.04</time>
   <time name="diis">    0.16    0.16</time>
   <time name="orth">    0.00    0.00</time>
   <time name="total">    0.52    0.52</time>
   <energy>
    <i name="alphaZ">      0.81223224 </i>
    <i name="ewald">    145.29067571 </i>
    <i name="hartreedc">   -638.46888419 </i>
    <i name="XCdc">     42.14835714 </i>
    <i name="pawpsdc">    991.25555830 </i>
    <i name="pawaedc">   -992.20944550 </i>
    <i name="eentropy">      0.00944929 </i>
    <i name="bandstr">   -165.08919789 </i>
    <i name="atom">    593.94817731 </i>
    <i name="e_fr_energy">    -22.30307760 </i>
    <i name="e_wo_entrp">    -22.31252689 </i>
    <i name="e_0_energy">    -22.30543992 </i>
   </energy>
  </scstep>
  <dipole>
   <v name="dipole">      0.00000000       0.00000000      20.66347069 </v>
   <i name="Tr[quadrupol]">   -602.17266294 </i>
   <i name="Echarged">      0.00000000 </i>
   <i name="Edipol_quadrupol">      0.00000000 </i>
   <i name="Eion">      0.00000000 </i>
  </dipole>
  <structure>
   <crystal>
    <varray name="basis" >
     <v>      10.00000000       0.00000000       0.00000000 </v>
     <v>       0.00000000      10.00000000       0.00000000 </v>
     <v>       0.00000000       0.00000000      10.00000000 </v>
    </varray>
    <i name="volume">   1000.00000000 </i>
    <varray name="rec_basis" >
     <v>       0.10000000       0.00000000       0.00000000 </v>
     <v>       0.00000000       0.10000000       0.00000000 </v>
     <v>       0.00000000       0.00000000       0.10000000 </v>
    </varray>
   </crystal>
   <varray name="positions" >
    <v>       0.42950300       0.47713450       0.49566800 </v>
    <v>       0.60620000       0.47713450       0.49666800 </v>
    <v>       0.39380000       0.43140350       0.58920400 </v>
    <v>       0.39380000       0.41986150       0.41079600 </v>
    <v>       0.39380000       0.58013850       0.49000400 </v>
   </varray>
  </structure>
  <varray name="forces" >
   <v>      -0.06320891       0.01004723       0.54251801 </v>
   <v>       0.28939120      -0.00148746      -0.03554931 </v>
   <v>      -0.00706827      -0.04168634       0.02649186 </v>
   <v>      -0.13718994      -0.27160557      -0.45873250 </v>
   <v>      -0.08192408       0.30473215      -0.07472807 </v>
  </varray>
  <varray name="stress" >
   <v>      -1.62617470       0.00536136       0.19236979 </v>
   <v>       0.00536135      -2.44996320       0.33619099 </v>
   <v>       0.19236980       0.33619098      -2.68665495 </v>
  </varray>
  <energy>
   <i name="e_fr_energy">     20.35674541 </i>
   <i name="e_wo_entrp">     20.35438308 </i>
   <i name="e_0_energy">      0.00944929 </i>
  </energy>
  <kpoints>
   <generation param="Gamma">
    <v type="int" name="divisions">       1        1        1 </v>
    <v name="usershift">      0.00000000       0.00000000       0.00000000 </v>
    <v name="genvec1">      1.00000000       0.00000000       0.00000000 </v>
    <v name="genvec2">      0.00000000       1.00000000       0.00000000 </v>
    <v name="genvec3">      0.00000000       0.00000000       1.00000000 </v>
    <v name="shift">      0.00000000       0.00000000       0.00000000 </v>
   </generation>
   <varray name="kpointlist" >
    <v>       0.00000000       0.00000000       0.00000000 </v>
   </varray>
   <varray name="weights" >
    <v>       1.00000000 </v>
   </varray>
  </kpoints>
  <time name="totalsc">   11.73   11.84</time>
 </calculation>
 <calculation>
  <scstep>
   <time name="dav">    0.17    0.17</time>
   <time name="total">    0.55    0.55</time>
   <energy>
    <i name="alphaZ">      0.81223224 </i>
    <i name="ewald">    143.58381256 </i>
    <i name="hartreedc">   -637.00502453 </i>
    <i name="XCdc">     42.12036403 </i>
    <i name="pawpsdc">    991.25144034 </i>
    <i name="pawaedc">   -992.20532701 </i>
    <i name="eentropy">      0.01207465 </i>
    <i name="bandstr">   -164.82485288 </i>
    <i name="atom">    593.94817731 </i>
    <i name="e_fr_energy">    -22.30710330 </i>
    <i name="e_wo_entrp">    -22.31917795 </i>
    <i name="e_0_energy">    -22.31012196 </i>
   </energy>
  </scstep>
  <scstep>
   <time name="diag">    0.04    0.04</time>
   <time name="diis">    0.19    0.19</time>
   <time name="orth">    0.00    0.00</time>
   <time name="total">    0.61    0.61</time>
   <energy>
    <i name="e_fr_energy">    -22.30524722 </i>
    <i name="e_wo_entrp">    -22.30958640 </i>
    <i name="e_0_energy">    -22.30633202 </i>
   </energy>
  </scstep>
  <scstep>
   <time name="diag">    0.04    0.04</time>
   <time name="diis">    0.19    0.19</time>
   <time name="orth">    0.00    0.00</time>
   <time name="total">    0.61    0.61</time>
   <energy>
    <i name="e_fr_energy">    -22.30743809 </i>
    <i name="e_wo_entrp">    -22.31974901 </i>
    <i name="e_0_energy">    -22.31051582 </i>
   </energy>
  </scstep>
  <scstep>
   <time name="diag">    0.04    0.04</time>
   <time name="diis">    0.18    0.18</time>
   <time name="orth">    0.00    0.00</time>
   <time name="total">    0.60    0.60</time>
   <energy>
    <i name="e_fr_energy">    -22.30825097 </i>
    <i name="e_wo_entrp">    -22.31830406 </i>
    <i name="e_0_energy">    -22.31076424 </i>
   </energy>
  </scstep>
  <scstep>
   <time name="diag">    0.04    0.04</time>
   <time name="diis">    0.16    0.16</time>
   <time name="orth">    0.00    0.00</time>
   <time name="total">    0.51    0.52</time>
   <energy>
    <i name="alphaZ">      0.81223224 </i>
    <i name="ewald">    143.58381256 </i>
    <i name="hartreedc">   -636.88006285 </i>
    <i name="XCdc">     42.11695633 </i>
    <i name="pawpsdc">    983.60357705 </i>
    <i name="pawaedc">   -984.55339213 </i>
    <i name="eentropy">      0.00988522 </i>
    <i name="bandstr">   -164.94939602 </i>
    <i name="atom">    593.94817731 </i>
    <i name="e_fr_energy">    -22.30821031 </i>
    <i name="e_wo_entrp">    -22.31809553 </i>
    <i name="e_0_energy">    -22.31068161 </i>
   </energy>
  </scstep>
  <dipole>
   <v name="dipole">      0.00000000       0.00000000       0.03997422 </v>
   <i name="Tr[quadrupol]">   -530.66566086 </i>
   <i name="Echarged">      0.00000000 </i>
   <i name="Edipol_quadrupol">      0.00000000 </i>
   <i name="Eion">      0.00000000 </i>
  </dipole>
  <structure>
   <crystal>
    <varray name="basis" >
     <v>      10.00000000       0.00000000       0.00000000 </v>
     <v>       0.00000000      10.00000000       0.00000000 </v>
     <v>       0.00000000       0.00000000      10.00000000 </v>
    </varray>
    <i name="volume">   1000.00000000 </i>
    <varray name="rec_basis" >
     <v>       0.10000000       0.00000000       0.00000000 </v>
     <v>       0.00000000       0.10000000       0.00000000 </v>
     <v>       0.00000000       0.00000000       0.10000000 </v>
    </varray>
   </crystal>
   <varray name="positions" >
    <v>       0.42950300       0.47713450       0.49666800 </v>
    <v>       0.60720000       0.47713450       0.49666800 </v>
    <v>       0.39380000       0.43140350       0.58920400 </v>
    <v>       0.39380000       0.41986150       0.41079600 </v>
    <v>       0.39380000       0.58013850       0.49000400 </v>
   </varray>
  </structure>
  <varray name="forces" >
   <v>       0.07766808       0.00989770       0.06563100 </v>
   <v>       0.08042526      -0.00283670      -0.01141169 </v>
   <v>      -0.05020508      -0.13334590       0.24597620 </v>
   <v>      -0.05208684      -0.16419391      -0.26192793 </v>
   <v>      -0.05580143       0.29047881      -0.03826758 </v>
  </varray>
  <varray name="stress" >
   <v>      -2.29261397       0.00834588       0.02384653 </v>
   <v>       0.00834587      -2.54900893       0.19289508 </v>
   <v>       0.02384651       0.19289504      -2.58504386 </v>
  </varray>
  <energy>
   <i name="e_fr_energy">    -22.30805066 </i>
   <i name="e_wo_entrp">    -22.31052196 </i>
   <i name="e_0_energy">      0.00988522 </i>
  </energy>
  <kpoints>
   <generation param="Gamma">
    <v type="int" name="divisions">       1        1        1 </v>
    <v name="usershift">      0.00000000       0.00000000       0.00000000 </v>
    <v name="genvec1">      1.00000000       0.00000000       0.00000000 </v>
    <v name="genvec2">      0.00000000       1.00000000       0.00000000 </v>
    <v name="genvec3">      0.00000000       0.00000000       1.00000000 </v>
    <v name="shift">      0.00000000       0.00000000       0.00000000 </v>
   </generation>
   <varray name="kpointlist" >
    <v>       0.00000000       0.00000000       0.00000000 </v>
   </varray>
   <varray name="weights" >
    <v>       1.00000000 </v>
   </varray>
  </kpoints>
  <time name="totalsc">    4.01    4.03</time>
 </calculation>
 <calculation>
  <scstep>
   <time name="dav">    0.17    0.17</time>
   <time name="total">    0.55    0.55</time>
   <energy>
    <i name="alphaZ">      0.81223224 </i>
    <i name="ewald">    147.01836910 </i>
    <i name="hartreedc">   -639.82347097 </i>
    <i name="XCdc">     42.17354939 </i>
    <i name="pawpsdc">    983.53127459 </i>
    <i name="pawaedc">   -984.48104696 </i>
    <i name="eentropy">      0.00976176 </i>
    <i name="bandstr">   -165.48989572 </i>
    <i name="atom">    593.94817731 </i>
    <i name="e_fr_energy">    -22.30104927 </i>
    <i name="e_wo_entrp">    -22.31081103 </i>
    <i name="e_0_energy">    -22.30348971 </i>
   </energy>
  </scstep>
  <scstep>
   <time name="diag">    0.04    0.04</time>
   <time name="diis">    0.19    0.19</time>
   <time name="orth">    0.00    0.00</time>
   <time name="total">    0.61    0.61</time>
   <energy>
    <i name="e_fr_energy">    -22.30201646 </i>
    <i name="e_wo_entrp">    -22.31104289 </i>
    <i name="e_0_energy">    -22.30427307 </i>
   </energy>
  </scstep>
  <scstep>
   <time name="diag">    0.04    0.04</time>
   <time name="diis">    0.18    0.18</time>
   <time name="orth">    0.00    0.00</time>
   <time name="total">    0.53    0.54</time>
   <energy>
    <i name="alphaZ">      0.81223224 </i>
    <i name="ewald">    147.01836910 </i>
    <i name="hartreedc">   -640.06038256 </i>
    <i name="XCdc">     42.18002637 </i>
    <i name="pawpsdc">    997.82000733 </i>
    <i name="pawaedc">   -998.77621932 </i>
    <i name="eentropy">      0.00826127 </i>
    <i name="bandstr">   -165.25245397 </i>
    <i name="atom">    593.94817731 </i>
    <i name="e_fr_energy">    -22.30198225 </i>
    <i name="e_wo_entrp">    -22.31024352 </i>
    <i name="e_0_energy">    -22.30404757 </i>
   </energy>
  </scstep>
  <dipole>
   <v name="dipole">      0.00000000       0.00000000       0.00190264 </v>
   <i name="Tr[quadrupol]">   -531.63863210 </i>
   <i name="Echarged">      0.00000000 </i>
   <i name="Edipol_quadrupol">      0.00000000 </i>
   <i name="Eion">      0.00000000 </i>
  </dipole>
  <structure>
   <crystal>
    <varray name="basis" >
     <v>      10.00000000       0.00000000       0.00000000 </v>
     <v>       0.00000000      10.00000000       0.00000000 </v>
     <v>       0.00000000       0.00000000      10.00000000 </v>
    </varray>
    <i name="volume">   1000.00000000 </i>
    <varray name="rec_basis" >
     <v>       0.10000000       0.00000000       0.00000000 </v>
     <v>       0.00000000       0.10000000       0.00000000 </v>
     <v>       0.00000000       0.00000000       0.10000000 </v>
    </varray>
   </crystal>
   <varray name="positions" >
    <v>       0.42950300       0.47713450       0.49666800 </v>
    <v>       0.60520000       0.47713450       0.49666800 </v>
    <v>       0.39380000       0.43140350       0.58920400 </v>
    <v>       0.39380000       0.41986150       0.41079600 </v>
    <v>       0.39380000       0.58013850       0.49000400 </v>
   </varray>
  </structure>
  <varray name="forces" >
   <v>      -0.22277513       0.01055954       0.04927447 </v>
   <v>       0.51174217      -0.00357982      -0.01097367 </v>
   <v>      -0.09671230      -0.13465044       0.24819279 </v>
   <v>      -0.09244568      -0.15700096      -0.24939874 </v>
   <v>      -0.09980907       0.28467168      -0.03709484 </v>
  </varray>
  <varray name="stress" >
   <v>      -0.91672188       0.00420732      -0.01323606 </v>
   <v>       0.00420734      -2.52611568      -0.10305714 </v>
   <v>      -0.01323603      -0.10305718      -2.52828744 </v>
  </varray>
  <energy>
   <i name="e_fr_energy">    -22.30198189 </i>
   <i name="e_wo_entrp">    -22.30404720 </i>
   <i name="e_0_energy">      0.00826127 </i>
  </energy>
  <kpoints>
   <generation param="Gamma">
    <v type="int" name="divisions">       1        1        1 </v>
    <v name="usershift">      0.00000000       0.00000000       0.00000000 </v>
    <v name="genvec1">      1.00000000       0.00000000       0.00000000 </v>
    <v name="genvec2">      0.00000000       1.00000000       0.00000000 </v>
    <v name="genvec3">      0.00000000       0.00000000       1.00000000 </v>
    <v name="shift">      0.00000000       0.00000000       0.00000000 </v>
   </generation>
   <varray name="kpointlist" >
    <v>       0.00000000       0.00000000       0.00000000 </v>
   </varray>
   <varray name="weights" >
    <v>       1.00000000 </v>
   </varray>
  </kpoints>
  <time name="totalsc">    2.83    2.84</time>
 </calculation>
 <calculation>
  <scstep>
   <time name="dav">    0.17    0.17</time>
   <time name="total">    0.55    0.56</time>
   <energy>
    <i name="alphaZ">      0.81223224 </i>
    <i name="ewald">    145.28738518 </i>
    <i name="hartreedc">   -638.58749540 </i>
    <i name="XCdc">     42.15145773 </i>
    <i name="pawpsdc">    998.46473452 </i>
    <i name="pawaedc">   -999.42172211 </i>
    <i name="eentropy">      0.00979505 </i>
    <i name="bandstr">   -164.96952352 </i>
    <i name="atom">    593.94817731 </i>
    <i name="e_fr_energy">    -22.30495900 </i>
    <i name="e_wo_entrp">    -22.31475406 </i>
    <i name="e_0_energy">    -22.30740777 </i>
   </energy>
  </scstep>
  <scstep>
   <time name="diag">    0.04    0.04</time>
   <time name="diis">    0.18    0.19</time>
   <time name="orth">    0.00    0.00</time>
   <time name="total">    0.61    0.61</time>
   <energy>
    <i name="e_fr_energy">    -22.30395409 </i>
    <i name="e_wo_entrp">    -22.31567304 </i>
    <i name="e_0_energy">    -22.30688383 </i>
   </energy>
  </scstep>
  <scstep>
   <time name="diag">    0.04    0.04</time>
   <time name="diis">    0.18    0.18</time>
   <time name="orth">    0.00    0.00</time>
   <time name="total">    0.60    0.61</time>
   <energy>
    <i name="e_fr_energy">    -22.30614614 </i>
    <i name="e_wo_entrp">    -22.31481694 </i>
    <i name="e_0_energy">    -22.30831384 </i>
   </energy>
  </scstep>
  <scstep>
   <time name="diag">    0.04    0.04</time>
   <time name="diis">    0.18    0.18</time>
   <time name="orth">    0.00    0.00</time>
   <time name="total">    0.60    0.60</time>
   <energy>
    <i name="e_fr_energy">    -22.30595913 </i>
    <i name="e_wo_entrp">    -22.31726466 </i>
    <i name="e_0_energy">    -22.30878551 </i>
   </energy>
  </scstep>
  <scstep>
   <time name="diag">    0.04    0.04</time>
   <time name="diis">    0.18    0.18</time>
   <time name="orth">    0.00    0.00</time>
   <time name="total">    0.53    0.54</time>
   <energy>
    <i name="alphaZ">      0.81223224 </i>
    <i name="ewald">    145.28738518 </i>
    <i name="hartreedc">   -638.46216491 </i>
    <i name="XCdc">     42.14865166 </i>
    <i name="pawpsdc">    991.48597669 </i>
    <i name="pawaedc">   -992.44015044 </i>
    <i name="eentropy">      0.00859769 </i>
    <i name="bandstr">   -165.09464651 </i>
    <i name="atom">    593.94817731 </i>
    <i name="e_fr_energy">    -22.30594110 </i>
    <i name="e_wo_entrp">    -22.31453880 </i>
    <i name="e_0_energy">    -22.30809053 </i>
   </energy>
  </scstep>
  <dipole>
   <v name="dipole">      0.00000000       0.00000000       0.00057768 </v>
   <i name="Tr[quadrupol]">   -531.75009866 </i>
   <i name="Echarged">      0.00000000 </i>
   <i name="Edipol_quadrupol">      0.00000000 </i>
   <i name="Eion">      0.00000000 </i>
  </dipole>
  <structure>
   <crystal>
    <varray name="basis" >
     <v>      10.00000000       0.00000000       0.00000000 </v>
     <v>       0.00000000      10.00000000       0.00000000 </v>
     <v>       0.00000000       0.00000000      10.00000000 </v>
    </varray>
    <i name="volume">   1000.00000000 </i>
    <varray name="rec_basis" >
     <v>       0.10000000       0.00000000       0.00000000 </v>
     <v>       0.00000000       0.10000000       0.00000000 </v>
     <v>       0.00000000       0.00000000       0.10000000 </v>
    </varray>
   </crystal>
   <varray name="positions" >
    <v>       0.42950300       0.47713450       0.49666800 </v>
    <v>       0.60620000       0.47813450       0.49666800 </v>
    <v>       0.39380000       0.43140350       0.58920400 </v>
    <v>       0.39380000       0.41986150       0.41079600 </v>
    <v>       0.39380000       0.58013850       0.49000400 </v>
   </varray>
  </structure>
  <varray name="forces" >
   <v>      -0.07107156       0.03152809      -0.09414610 </v>
   <v>       0.29807524      -0.01571325       0.01470867 </v>
   <v>      -0.06617902      -0.12986718       0.28805058 </v>
   <v>      -0.06094677      -0.16866212      -0.21950351 </v>
   <v>      -0.09987788       0.28271446       0.01089035 </v>
  </varray>
  <varray name="stress" >
   <v>      -1.62482967      -0.03825122      -0.02174120 </v>
   <v>      -0.03825116      -2.61939682      -0.24899059 </v>
   <v>      -0.02174123      -0.24899059      -2.51503652 </v>
  </varray>
  <energy>
[...]
        <r>    -1.1050     0.0000     0.0000     0.0000     0.0000     0.0000     0.0000     0.0000     0.0000     0.0000 </r>
        <r>    -1.0236     0.0000     0.0000     0.0000     0.0000     0.0000     0.0000     0.0000     0.0000     0.0000 </r>
        <r>    -0.9423     0.0000     0.0000     0.0000     0.0000     0.0000     0.0000     0.0000     0.0000     0.0000 </r>
        <r>    -0.8610     0.0000     0.0000     0.0000     0.0000     0.0000     0.0000     0.0000     0.0000     0.0000 </r>
        <r>    -0.7797     0.0000     0.0001     0.0000     0.0001     0.0000     0.0000     0.0000     0.0000     0.0000 </r>
        <r>    -0.6984    -0.0000    -0.0003    -0.0000    -0.0001     0.0000     0.0000     0.0000     0.0000     0.0000 </r>
        <r>    -0.6170    -0.0002    -0.0022    -0.0000    -0.0010     0.0000     0.0000     0.0000     0.0000     0.0000 </r>
        <r>    -0.5357     0.0026     0.0290     0.0002     0.0139     0.0000     0.0000     0.0000     0.0000     0.0000 </r>
        <r>    -0.4544     0.0026     0.0292     0.0002     0.0140     0.0000     0.0000     0.0000     0.0000     0.0000 </r>
        <r>    -0.3731    -0.0002    -0.0021    -0.0000    -0.0008     0.0000     0.0000     0.0000     0.0000     0.0000 </r>
        <r>    -0.2918    -0.0000    -0.0003    -0.0000    -0.0005     0.0000     0.0000     0.0000     0.0000     0.0000 </r>
        <r>    -0.2104    -0.0001     0.0001     0.0000    -0.0034     0.0000     0.0000     0.0000     0.0000     0.0000 </r>
        <r>    -0.1291     0.0010     0.0007     0.0000     0.0422     0.0000     0.0000     0.0000     0.0000     0.0000 </r>
        <r>    -0.0478     0.0010     0.0008     0.0000     0.0453     0.0000     0.0000     0.0000     0.0000     0.0000 </r>
        <r>     0.0335    -0.0001    -0.0000    -0.0000    -0.0029     0.0000     0.0000     0.0000     0.0000     0.0000 </r>
        <r>     0.1149    -0.0000    -0.0000    -0.0000    -0.0006     0.0000     0.0000     0.0000     0.0000     0.0000 </r>
        <r>     0.1962     0.0000     0.0000     0.0000     0.0002     0.0000     0.0000     0.0000     0.0000     0.0000 </r>
        <r>     0.2775     0.0000     0.0000     0.0000     0.0000     0.0000     0.0000     0.0000     0.0000     0.0000 </r>
        <r>     0.3588     0.0000     0.0000     0.0000     0.0000     0.0000     0.0000     0.0000     0.0000     0.0000 </r>
        <r>     0.4401     0.0000     0.0000     0.0000     0.0000     0.0000     0.0000     0.0000     0.0000     0.0000 </r>
        <r>     0.5215     0.0000     0.0000     0.0000     0.0000     0.0000     0.0000     0.0000     0.0000     0.0000 </r>
        <r>     0.6028     0.0000     0.0000     0.0000     0.0000     0.0000     0.0000     0.0000     0.0000     0.0000 </r>
        <r>     0.6841     0.0000     0.0000     0.0000     0.0000     0.0000     0.0000     0.0000     0.0000     0.0000 </r>
        <r>     0.7654     0.0001     0.0004     0.0000     0.0001     0.0000     0.0000     0.0000     0.0000     0.0000 </r>
        <r>     0.8468    -0.0004    -0.0028    -0.0001    -0.0005     0.0000     0.0000     0.0000     0.0000     0.0000 </r>
        <r>     0.9281    -0.0001     0.0071    -0.0000     0.0009     0.0000     0.0000     0.0000     0.0000     0.0000 </r>
        <r>     1.0094     0.0184     0.0717     0.0027     0.0161     0.0000     0.0000     0.0000     0.0000     0.0000 </r>
        <r>     1.0907     0.0188     0.0312     0.0018     0.0111     0.0000     0.0000     0.0000     0.0000     0.0000 </r>
        <r>     1.1720    -0.0004    -0.0044    -0.0002    -0.0007     0.0000     0.0000     0.0000     0.0000     0.0000 </r>
        <r>     1.2534    -0.0004     0.0001    -0.0000    -0.0001     0.0000     0.0000     0.0000     0.0000     0.0000 </r>
        <r>     1.3347     0.0001     0.0001     0.0000     0.0001     0.0000     0.0000     0.0000     0.0000     0.0000 </r>
        <r>     1.4160     0.0000     0.0000     0.0000     0.0000     0.0000     0.0000     0.0000     0.0000     0.0000 </r>
        <r>     1.4973     0.0000     0.0000     0.0000     0.0000     0.0000     0.0000     0.0000     0.0000     0.0000 </r>
        <r>     1.5787     0.0000     0.0000     0.0000     0.0000     0.0000     0.0000     0.0000     0.0000     0.0000 </r>
        <r>     1.6600     0.0000     0.0000     0.0000     0.0000     0.0000     0.0000     0.0000     0.0000     0.0000 </r>
        <r>     1.7413     0.0000     0.0000     0.0000     0.0000     0.0000     0.0000     0.0000     0.0000     0.0000 </r>
        <r>     1.8226     0.0000     0.0000     0.0000     0.0000     0.0000     0.0000     0.0000     0.0000     0.0000 </r>
        <r>     1.9039     0.0000     0.0000     0.0000     0.0000     0.0000     0.0000     0.0000     0.0000     0.0000 </r>
        <r>     1.9853     0.0000     0.0000     0.0000     0.0000     0.0000     0.0000     0.0000     0.0000     0.0000 </r>
        <r>     2.0666     0.0000     0.0000     0.0000     0.0000     0.0000     0.0000     0.0000     0.0000     0.0000 </r>
        <r>     2.1479     0.0000     0.0000     0.0000     0.0000     0.0000     0.0000     0.0000     0.0000     0.0000 </r>
       </set>
      </set>
     </set>
    </array>
   </partial>
  </dos>
  <projected>
   <eigenvalues>
    <array>
     <dimension dim="1">band</dimension>
     <dimension dim="2">kpoint</dimension>
     <dimension dim="3">spin</dimension>
     <field>eigene</field>
     <field>occ</field>
     <set>
      <set comment="spin 1">
       <set comment="kpoint 1">
        <r>  -21.1395    1.0000 </r>
        <r>  -16.4624    1.0000 </r>
        <r>  -10.6763    1.0000 </r>
        <r>  -10.6390    1.0000 </r>
        <r>  -10.0823    1.0000 </r>
        <r>   -6.7817    1.0391 </r>
        <r>   -6.7572    0.9609 </r>
        <r>   -0.5344    0.0000 </r>
        <r>   -0.1243    0.0000 </r>
        <r>    0.9500    0.0000 </r>
        <r>    1.0097    0.0000 </r>
        <r>    1.0390    0.0000 </r>
       </set>
      </set>
      <set comment="spin 2">
       <set comment="kpoint 1">
        <r>  -21.1398    1.0000 </r>
        <r>  -16.4626    1.0000 </r>
        <r>  -10.6683    1.0000 </r>
        <r>  -10.6475    1.0000 </r>
        <r>  -10.0823    1.0000 </r>
        <r>   -6.8115    1.0167 </r>
        <r>   -6.7278    0.9833 </r>
        <r>   -0.5355    0.0000 </r>
        <r>   -0.1270    0.0000 </r>
        <r>    0.9743    0.0000 </r>
        <r>    0.9982    0.0000 </r>
        <r>    1.0261    0.0000 </r>
       </set>
      </set>
     </set>
    </array>
   </eigenvalues>
   <array>
    <dimension dim="1">ion</dimension>
    <dimension dim="2">band</dimension>
    <dimension dim="3">kpoint</dimension>
    <dimension dim="4">spin</dimension>
    <field>  s</field>
    <field> py</field>
    <field> pz</field>
    <field> px</field>
    <field>dxy</field>
    <field>dyz</field>
    <field>dz2</field>
    <field>dxz</field>
    <field>dx2</field>
    <set>
     <set comment="spin1">
      <set comment="kpoint 1">
       <set comment="band 1">
        <r>  0.1283  0.0000  0.0000  0.0151  0.0000  0.0000  0.0000  0.0000  0.0000 </r>
        <r>  0.5719  0.0000  0.0000  0.0262  0.0000  0.0000  0.0000  0.0000  0.0000 </r>
        <r>  0.0114  0.0002  0.0008  0.0004  0.0000  0.0000  0.0000  0.0000  0.0000 </r>
        <r>  0.0115  0.0003  0.0007  0.0004  0.0000  0.0000  0.0000  0.0000  0.0000 </r>
        <r>  0.0114  0.0010  0.0000  0.0004  0.0000  0.0000  0.0000  0.0000  0.0000 </r>
       </set>
       <set comment="band 2">
        <r>  0.2853  0.0000  0.0000  0.0193  0.0000  0.0000  0.0000  0.0000  0.0000 </r>
        <r>  0.2035  0.0000  0.0000  0.0262  0.0000  0.0000  0.0000  0.0000  0.0000 </r>
        <r>  0.0661  0.0011  0.0044  0.0003  0.0000  0.0000  0.0000  0.0000  0.0000 </r>
        <r>  0.0670  0.0017  0.0038  0.0003  0.0000  0.0000  0.0000  0.0000  0.0000 </r>
        <r>  0.0661  0.0054  0.0000  0.0003  0.0000  0.0000  0.0000  0.0000  0.0000 </r>
       </set>
       <set comment="band 3">
        <r>  0.0000  0.1052  0.1811  0.0000  0.0000  0.0000  0.0000  0.0000  0.0000 </r>
        <r>  0.0000  0.0276  0.0474  0.0000  0.0000  0.0000  0.0000  0.0000  0.0000 </r>
        <r>  0.1792  0.0005  0.0045  0.0019  0.0000  0.0000  0.0000  0.0000  0.0000 </r>
        <r>  0.0197  0.0025  0.0000  0.0002  0.0000  0.0000  0.0000  0.0000  0.0000 </r>
        <r>  0.0817  0.0025  0.0010  0.0009  0.0000  0.0000  0.0000  0.0000  0.0000 </r>
       </set>
       <set comment="band 4">
        <r>  0.0000  0.1807  0.1049  0.0000  0.0000  0.0000  0.0000  0.0000  0.0000 </r>
        <r>  0.0000  0.0480  0.0278  0.0001  0.0000  0.0000  0.0000  0.0000  0.0000 </r>
        <r>  0.0068  0.0022  0.0001  0.0001  0.0000  0.0000  0.0000  0.0000  0.0000 </r>
        <r>  0.1677  0.0006  0.0043  0.0018  0.0000  0.0000  0.0000  0.0000  0.0000 </r>
        <r>  0.1044  0.0026  0.0012  0.0011  0.0000  0.0000  0.0000  0.0000  0.0000 </r>
       </set>
       <set comment="band 5">
        <r>  0.0000  0.0000  0.0000  0.1961  0.0000  0.0000  0.0000  0.0000  0.0000 </r>
        <r>  0.0231  0.0000  0.0000  0.4261  0.0000  0.0000  0.0000  0.0000  0.0000 </r>
        <r>  0.0188  0.0003  0.0010  0.0008  0.0000  0.0000  0.0000  0.0000  0.0000 </r>
        <r>  0.0164  0.0004  0.0008  0.0008  0.0000  0.0000  0.0000  0.0000  0.0000 </r>
        <r>  0.0181  0.0012  0.0000  0.0008  0.0000  0.0000  0.0000  0.0000  0.0000 </r>
       </set>
       <set comment="band 6">
        <r>  0.0000  0.0162  0.0186  0.0000  0.0000  0.0000  0.0000  0.0000  0.0000 </r>
        <r>  0.0000  0.2639  0.3045  0.0000  0.0000  0.0000  0.0000  0.0000  0.0000 </r>
        <r>  0.0402  0.0001  0.0008  0.0000  0.0000  0.0000  0.0000  0.0000  0.0000 </r>
        <r>  0.0023  0.0003  0.0000  0.0000  0.0000  0.0000  0.0000  0.0000  0.0000 </r>
        <r>  0.0234  0.0005  0.0001  0.0000  0.0000  0.0000  0.0000  0.0000  0.0000 </r>
       </set>
       <set comment="band 7">
        <r>  0.0000  0.0189  0.0163  0.0000  0.0000  0.0000  0.0000  0.0000  0.0000 </r>
        <r>  0.0000  0.3036  0.2634  0.0000  0.0000  0.0000  0.0000  0.0000  0.0000 </r>
        <r>  0.0037  0.0004  0.0000  0.0000  0.0000  0.0000  0.0000  0.0000  0.0000 </r>
        <r>  0.0420  0.0002  0.0007  0.0000  0.0000  0.0000  0.0000  0.0000  0.0000 </r>
        <r>  0.0208  0.0004  0.0002  0.0000  0.0000  0.0000  0.0000  0.0000  0.0000 </r>
       </set>
       <set comment="band 8">
        <r>  0.0578  0.0000  0.0000  0.0078  0.0000  0.0000  0.0000  0.0000  0.0000 </r>
        <r>  0.0008  0.0000  0.0000  0.0424  0.0000  0.0000  0.0000  0.0000  0.0000 </r>
        <r>  0.0002  0.0004  0.0018  0.0010  0.0000  0.0000  0.0000  0.0000  0.0000 </r>
        <r>  0.0002  0.0007  0.0016  0.0011  0.0000  0.0000  0.0000  0.0000  0.0000 </r>
        <r>  0.0002  0.0023  0.0000  0.0011  0.0000  0.0000  0.0000  0.0000  0.0000 </r>
       </set>
       <set comment="band 9">
        <r>  0.0251  0.0000  0.0000  0.1061  0.0000  0.0000  0.0000  0.0000  0.0000 </r>
        <r>  0.0417  0.0000  0.0000  0.0735  0.0000  0.0000  0.0000  0.0000  0.0000 </r>
        <r>  0.0001  0.0000  0.0001  0.0033  0.0000  0.0000  0.0000  0.0000  0.0000 </r>
        <r>  0.0001  0.0000  0.0001  0.0032  0.0000  0.0000  0.0000  0.0000  0.0000 </r>
        <r>  0.0001  0.0001  0.0000  0.0032  0.0000  0.0000  0.0000  0.0000  0.0000 </r>
       </set>
       <set comment="band 10">
        <r>  0.0001  0.0273  0.0057  0.0000  0.0000  0.0000  0.0000  0.0000  0.0000 </r>
        <r>  0.0000  0.0028  0.0010  0.0000  0.0000  0.0000  0.0000  0.0000  0.0000 </r>
        <r>  0.0000  0.0002  0.0001  0.0000  0.0000  0.0000  0.0000  0.0000  0.0000 </r>
        <r>  0.0001  0.0002  0.0019  0.0006  0.0000  0.0000  0.0000  0.0000  0.0000 </r>
        <r>  0.0003  0.0024  0.0001  0.0006  0.0000  0.0000  0.0000  0.0000  0.0000 </r>
       </set>
       <set comment="band 11">
        <r>  0.0027  0.0057  0.0167  0.0000  0.0000  0.0000  0.0000  0.0000  0.0000 </r>
        <r>  0.0014  0.0004  0.0020  0.0005  0.0000  0.0000  0.0000  0.0000  0.0000 </r>
        <r>  0.0009  0.0006  0.0034  0.0002  0.0000  0.0000  0.0000  0.0000  0.0000 </r>
        <r>  0.0004  0.0001  0.0001  0.0004  0.0000  0.0000  0.0000  0.0000  0.0000 </r>
        <r>  0.0001  0.0001  0.0001  0.0005  0.0000  0.0000  0.0000  0.0000  0.0000 </r>
       </set>
       <set comment="band 12">
        <r>  0.0035  0.0019  0.0108  0.0000  0.0000  0.0000  0.0000  0.0000  0.0000 </r>
        <r>  0.0019  0.0001  0.0015  0.0013  0.0000  0.0000  0.0000  0.0000  0.0000 </r>
        <r>  0.0004  0.0000  0.0001  0.0009  0.0000  0.0000  0.0000  0.0000  0.0000 </r>
        <r>  0.0007  0.0010  0.0008  0.0000  0.0000  0.0000  0.0000  0.0000  0.0000 </r>
        <r>  0.0012  0.0015  0.0000  0.0000  0.0000  0.0000  0.0000  0.0000  0.0000 </r>
       </set>
      </set>
     </set>
     <set comment="spin2">
      <set comment="kpoint 1">
       <set comment="band 1">
        <r>  0.1283  0.0000  0.0000  0.0151  0.0000  0.0000  0.0000  0.0000  0.0000 </r>
        <r>  0.5720  0.0000  0.0000  0.0262  0.0000  0.0000  0.0000  0.0000  0.0000 </r>
        <r>  0.0114  0.0002  0.0008  0.0004  0.0000  0.0000  0.0000  0.0000  0.0000 </r>
        <r>  0.0115  0.0003  0.0007  0.0004  0.0000  0.0000  0.0000  0.0000  0.0000 </r>
        <r>  0.0114  0.0010  0.0000  0.0004  0.0000  0.0000  0.0000  0.0000  0.0000 </r>
       </set>
       <set comment="band 2">
        <r>  0.2853  0.0000  0.0000  0.0193  0.0000  0.0000  0.0000  0.0000  0.0000 </r>
        <r>  0.2035  0.0000  0.0000  0.0262  0.0000  0.0000  0.0000  0.0000  0.0000 </r>
        <r>  0.0660  0.0011  0.0044  0.0003  0.0000  0.0000  0.0000  0.0000  0.0000 </r>
        <r>  0.0672  0.0017  0.0038  0.0003  0.0000  0.0000  0.0000  0.0000  0.0000 </r>
        <r>  0.0660  0.0054  0.0000  0.0003  0.0000  0.0000  0.0000  0.0000  0.0000 </r>
       </set>
       <set comment="band 3">
        <r>  0.0000  0.0127  0.2735  0.0000  0.0000  0.0000  0.0000  0.0000  0.0000 </r>
        <r>  0.0000  0.0029  0.0720  0.0001  0.0000  0.0000  0.0000  0.0000  0.0000 </r>
        <r>  0.1747  0.0017  0.0033  0.0019  0.0000  0.0000  0.0000  0.0000  0.0000 </r>
        <r>  0.0909  0.0031  0.0005  0.0010  0.0000  0.0000  0.0000  0.0000  0.0000 </r>
        <r>  0.0148  0.0006  0.0018  0.0001  0.0000  0.0000  0.0000  0.0000  0.0000 </r>
       </set>
       <set comment="band 4">
        <r>  0.0000  0.2734  0.0123  0.0000  0.0000  0.0000  0.0000  0.0000  0.0000 </r>
        <r>  0.0000  0.0722  0.0037  0.0000  0.0000  0.0000  0.0000  0.0000  0.0000 </r>
        <r>  0.0114  0.0011  0.0013  0.0001  0.0000  0.0000  0.0000  0.0000  0.0000 </r>
        <r>  0.0963  0.0000  0.0037  0.0010  0.0000  0.0000  0.0000  0.0000  0.0000 </r>
        <r>  0.1713  0.0046  0.0003  0.0019  0.0000  0.0000  0.0000  0.0000  0.0000 </r>
       </set>
       <set comment="band 5">
        <r>  0.0000  0.0000  0.0001  0.1961  0.0000  0.0000  0.0000  0.0000  0.0000 </r>
        <r>  0.0231  0.0000  0.0000  0.4261  0.0000  0.0000  0.0000  0.0000  0.0000 </r>
        <r>  0.0190  0.0003  0.0010  0.0008  0.0000  0.0000  0.0000  0.0000  0.0000 </r>
        <r>  0.0160  0.0003  0.0008  0.0008  0.0000  0.0000  0.0000  0.0000  0.0000 </r>
        <r>  0.0183  0.0012  0.0000  0.0008  0.0000  0.0000  0.0000  0.0000  0.0000 </r>
       </set>
       <set comment="band 6">
        <r>  0.0000  0.0106  0.0254  0.0000  0.0000  0.0000  0.0000  0.0000  0.0000 </r>
        <r>  0.0000  0.1653  0.4013  0.0000  0.0000  0.0000  0.0000  0.0000  0.0000 </r>
        <r>  0.0120  0.0004  0.0001  0.0000  0.0000  0.0000  0.0000  0.0000  0.0000 </r>
        <r>  0.0448  0.0003  0.0006  0.0000  0.0000  0.0000  0.0000  0.0000  0.0000 </r>
        <r>  0.0105  0.0002  0.0003  0.0000  0.0000  0.0000  0.0000  0.0000  0.0000 </r>
       </set>
       <set comment="band 7">
        <r>  0.0000  0.0243  0.0099  0.0000  0.0000  0.0000  0.0000  0.0000  0.0000 </r>
        <r>  0.0000  0.4024  0.1664  0.0000  0.0000  0.0000  0.0000  0.0000  0.0000 </r>
        <r>  0.0316  0.0000  0.0007  0.0000  0.0000  0.0000  0.0000  0.0000  0.0000 </r>
        <r>  0.0000  0.0002  0.0001  0.0000  0.0000  0.0000  0.0000  0.0000  0.0000 </r>
        <r>  0.0334  0.0007  0.0000  0.0000  0.0000  0.0000  0.0000  0.0000  0.0000 </r>
       </set>
       <set comment="band 8">
        <r>  0.0574  0.0000  0.0000  0.0076  0.0000  0.0000  0.0000  0.0000  0.0000 </r>
        <r>  0.0008  0.0000  0.0000  0.0419  0.0000  0.0000  0.0000  0.0000  0.0000 </r>
        <r>  0.0002  0.0004  0.0019  0.0011  0.0000  0.0000  0.0000  0.0000  0.0000 </r>
        <r>  0.0002  0.0007  0.0016  0.0011  0.0000  0.0000  0.0000  0.0000  0.0000 </r>
        <r>  0.0002  0.0022  0.0000  0.0010  0.0000  0.0000  0.0000  0.0000  0.0000 </r>
       </set>
       <set comment="band 9">
        <r>  0.0255  0.0000  0.0000  0.1063  0.0000  0.0000  0.0000  0.0000  0.0000 </r>
        <r>  0.0417  0.0000  0.0000  0.0740  0.0000  0.0000  0.0000  0.0000  0.0000 </r>
        <r>  0.0001  0.0000  0.0001  0.0032  0.0000  0.0000  0.0000  0.0000  0.0000 </r>
        <r>  0.0001  0.0000  0.0001  0.0032  0.0000  0.0000  0.0000  0.0000  0.0000 </r>
        <r>  0.0001  0.0001  0.0000  0.0033  0.0000  0.0000  0.0000  0.0000  0.0000 </r>
       </set>
       <set comment="band 10">
        <r>  0.0002  0.0223  0.0117  0.0000  0.0000  0.0000  0.0000  0.0000  0.0000 </r>
        <r>  0.0001  0.0019  0.0015  0.0000  0.0000  0.0000  0.0000  0.0000  0.0000 </r>
        <r>  0.0001  0.0001  0.0020  0.0008  0.0000  0.0000  0.0000  0.0000  0.0000 </r>
        <r>  0.0000  0.0004  0.0000  0.0000  0.0000  0.0000  0.0000  0.0000  0.0000 </r>
        <r>  0.0004  0.0028  0.0000  0.0005  0.0000  0.0000  0.0000  0.0000  0.0000 </r>
       </set>
       <set comment="band 11">
        <r>  0.0002  0.0114  0.0219  0.0000  0.0000  0.0000  0.0000  0.0000  0.0000 </r>
        <r>  0.0001  0.0012  0.0032  0.0000  0.0000  0.0000  0.0000  0.0000  0.0000 </r>
        <r>  0.0000  0.0006  0.0004  0.0002  0.0000  0.0000  0.0000  0.0000  0.0000 </r>
        <r>  0.0000  0.0007  0.0018  0.0010  0.0000  0.0000  0.0000  0.0000  0.0000 </r>
        <r>  0.0002  0.0010  0.0002  0.0002  0.0000  0.0000  0.0000  0.0000  0.0000 </r>
       </set>
       <set comment="band 12">
        <r>  0.0059  0.0011  0.0000  0.0001  0.0000  0.0000  0.0000  0.0000  0.0000 </r>
        <r>  0.0032  0.0001  0.0000  0.0017  0.0000  0.0000  0.0000  0.0000  0.0000 </r>
        <r>  0.0012  0.0001  0.0009  0.0002  0.0000  0.0000  0.0000  0.0000  0.0000 </r>
        <r>  0.0011  0.0003  0.0010  0.0001  0.0000  0.0000  0.0000  0.0000  0.0000 </r>
        <r>  0.0009  0.0004  0.0000  0.0004  0.0000  0.0000  0.0000  0.0000  0.0000 </r>
       </set>
      </set>
     </set>
    </set>
   </array>
  </projected>
 </calculation>
 <structure name="finalpos" >
  <crystal>
   <varray name="basis" >
    <v>      10.00000000       0.00000000       0.00000000 </v>
    <v>       0.00000000      10.00000000       0.00000000 </v>
    <v>       0.00000000       0.00000000      10.00000000 </v>
   </varray>
   <i name="volume">   1000.00000000 </i>
   <varray name="rec_basis" >
    <v>       0.10000000       0.00000000       0.00000000 </v>
    <v>       0.00000000       0.10000000       0.00000000 </v>
    <v>       0.00000000       0.00000000       0.10000000 </v>
   </varray>
  </crystal>
  <varray name="positions" >
   <v>       0.42950300       0.47713450       0.49666800 </v>
   <v>       0.60620000       0.47713450       0.49666800 </v>
   <v>       0.39380000       0.43140350       0.58920400 </v>
   <v>       0.39380000       0.41986150       0.41079600 </v>
   <v>       0.39380000       0.58013850       0.48900400 </v>
  </varray>
 </structure>
</modeling>
