unknown system                          
           1
    10.000000    0.000000    0.000000
     0.000000   10.000000    0.000000
     0.000000    0.000000   10.000000
   C    Cl   H 
   1   1   3
Direct configuration=     1
   0.42950300  0.47713450  0.49666800
   0.60620000  0.47713450  0.49666800
   0.39380000  0.43140350  0.58920400
   0.39380000  0.41986150  0.41079600
   0.39380000  0.58013850  0.49000400
Direct configuration=     2
   0.43050300  0.47713450  0.49666800
   0.60620000  0.47713450  0.49666800
   0.39380000  0.43140350  0.58920400
   0.39380000  0.41986150  0.41079600
   0.39380000  0.58013850  0.49000400
Direct configuration=     3
   0.42850300  0.47713450  0.49666800
   0.60620000  0.47713450  0.49666800
   0.39380000  0.43140350  0.58920400
   0.39380000  0.41986150  0.41079600
   0.39380000  0.58013850  0.49000400
Direct configuration=     4
   0.42950300  0.47813450  0.49666800
   0.60620000  0.47713450  0.49666800
   0.39380000  0.43140350  0.58920400
   0.39380000  0.41986150  0.41079600
   0.39380000  0.58013850  0.49000400
Direct configuration=     5
   0.42950300  0.47613450  0.49666800
   0.60620000  0.47713450  0.49666800
   0.39380000  0.43140350  0.58920400
   0.39380000  0.41986150  0.41079600
   0.39380000  0.58013850  0.49000400
Direct configuration=     6
   0.42950300  0.47713450  0.49766800
   0.60620000  0.47713450  0.49666800
   0.39380000  0.43140350  0.58920400
   0.39380000  0.41986150  0.41079600
   0.39380000  0.58013850  0.49000400
Direct configuration=     7
   0.42950300  0.47713450  0.49566800
   0.60620000  0.47713450  0.49666800
   0.39380000  0.43140350  0.58920400
   0.39380000  0.41986150  0.41079600
   0.39380000  0.58013850  0.49000400
Direct configuration=     8
   0.42950300  0.47713450  0.49666800
   0.60720000  0.47713450  0.49666800
   0.39380000  0.43140350  0.58920400
   0.39380000  0.41986150  0.41079600
   0.39380000  0.58013850  0.49000400
Direct configuration=     9
   0.42950300  0.47713450  0.49666800
   0.60520000  0.47713450  0.49666800
   0.39380000  0.43140350  0.58920400
   0.39380000  0.41986150  0.41079600
   0.39380000  0.58013850  0.49000400
Direct configuration=    10
   0.42950300  0.47713450  0.49666800
   0.60620000  0.47813450  0.49666800
   0.39380000  0.43140350  0.58920400
   0.39380000  0.41986150  0.41079600
   0.39380000  0.58013850  0.49000400
Direct configuration=    11
   0.42950300  0.47713450  0.49666800
   0.60620000  0.47613450  0.49666800
   0.39380000  0.43140350  0.58920400
   0.39380000  0.41986150  0.41079600
   0.39380000  0.58013850  0.49000400
Direct configuration=    12
   0.42950300  0.47713450  0.49666800
   0.60620000  0.47713450  0.49766800
   0.39380000  0.43140350  0.58920400
   0.39380000  0.41986150  0.41079600
   0.39380000  0.58013850  0.49000400
Direct configuration=    13
   0.42950300  0.47713450  0.49666800
   0.60620000  0.47713450  0.49566800
   0.39380000  0.43140350  0.58920400
   0.39380000  0.41986150  0.41079600
   0.39380000  0.58013850  0.49000400
Direct configuration=    14
   0.42950300  0.47713450  0.49666800
   0.60620000  0.47713450  0.49666800
   0.39480000  0.43140350  0.58920400
   0.39380000  0.41986150  0.41079600
   0.39380000  0.58013850  0.49000400
Direct configuration=    15
   0.42950300  0.47713450  0.49666800
   0.60620000  0.47713450  0.49666800
   0.39280000  0.43140350  0.58920400
   0.39380000  0.41986150  0.41079600
   0.39380000  0.58013850  0.49000400
Direct configuration=    16
   0.42950300  0.47713450  0.49666800
   0.60620000  0.47713450  0.49666800
   0.39380000  0.43240350  0.58920400
   0.39380000  0.41986150  0.41079600
   0.39380000  0.58013850  0.49000400
Direct configuration=    17
   0.42950300  0.47713450  0.49666800
   0.60620000  0.47713450  0.49666800
   0.39380000  0.43040350  0.58920400
   0.39380000  0.41986150  0.41079600
   0.39380000  0.58013850  0.49000400
Direct configuration=    18
   0.42950300  0.47713450  0.49666800
   0.60620000  0.47713450  0.49666800
   0.39380000  0.43140350  0.59020400
   0.39380000  0.41986150  0.41079600
   0.39380000  0.58013850  0.49000400
Direct configuration=    19
   0.42950300  0.47713450  0.49666800
   0.60620000  0.47713450  0.49666800
   0.39380000  0.43140350  0.58820400
   0.39380000  0.41986150  0.41079600
   0.39380000  0.58013850  0.49000400
Direct configuration=    20
   0.42950300  0.47713450  0.49666800
   0.60620000  0.47713450  0.49666800
   0.39380000  0.43140350  0.58920400
   0.39480000  0.41986150  0.41079600
   0.39380000  0.58013850  0.49000400
Direct configuration=    21
   0.42950300  0.47713450  0.49666800
   0.60620000  0.47713450  0.49666800
   0.39380000  0.43140350  0.58920400
   0.39280000  0.41986150  0.41079600
   0.39380000  0.58013850  0.49000400
Direct configuration=    22
   0.42950300  0.47713450  0.49666800
   0.60620000  0.47713450  0.49666800
   0.39380000  0.43140350  0.58920400
   0.39380000  0.42086150  0.41079600
   0.39380000  0.58013850  0.49000400
Direct configuration=    23
   0.42950300  0.47713450  0.49666800
   0.60620000  0.47713450  0.49666800
   0.39380000  0.43140350  0.58920400
   0.39380000  0.41886150  0.41079600
   0.39380000  0.58013850  0.49000400
Direct configuration=    24
   0.42950300  0.47713450  0.49666800
   0.60620000  0.47713450  0.49666800
   0.39380000  0.43140350  0.58920400
   0.39380000  0.41986150  0.41179600
   0.39380000  0.58013850  0.49000400
Direct configuration=    25
   0.42950300  0.47713450  0.49666800
   0.60620000  0.47713450  0.49666800
   0.39380000  0.43140350  0.58920400
   0.39380000  0.41986150  0.40979600
   0.39380000  0.58013850  0.49000400
Direct configuration=    26
   0.42950300  0.47713450  0.49666800
   0.60620000  0.47713450  0.49666800
   0.39380000  0.43140350  0.58920400
   0.39380000  0.41986150  0.41079600
   0.39480000  0.58013850  0.49000400
Direct configuration=    27
   0.42950300  0.47713450  0.49666800
   0.60620000  0.47713450  0.49666800
   0.39380000  0.43140350  0.58920400
   0.39380000  0.41986150  0.41079600
   0.39280000  0.58013850  0.49000400
Direct configuration=    28
   0.42950300  0.47713450  0.49666800
   0.60620000  0.47713450  0.49666800
   0.39380000  0.43140350  0.58920400
   0.39380000  0.41986150  0.41079600
   0.39380000  0.58113850  0.49000400
Direct configuration=    29
   0.42950300  0.47713450  0.49666800
   0.60620000  0.47713450  0.49666800
   0.39380000  0.43140350  0.58920400
   0.39380000  0.41986150  0.41079600
   0.39380000  0.57913850  0.49000400
Direct configuration=    30
   0.42950300  0.47713450  0.49666800
   0.60620000  0.47713450  0.49666800
   0.39380000  0.43140350  0.58920400
   0.39380000  0.41986150  0.41079600
   0.39380000  0.58013850  0.49100400
Direct configuration=    31
   0.42950300  0.47713450  0.49666800
   0.60620000  0.47713450  0.49666800
   0.39380000  0.43140350  0.58920400
   0.39380000  0.41986150  0.41079600
   0.39380000  0.58013850  0.48900400
