    #         X           Y           Z        CHARGE     MIN DIST    ATOMIC VOL
 --------------------------------------------------------------------------------
    1   4.2950300   4.7713400   4.9666800   4.2320506   0.6025327  16.5908858
    2   6.0620000   4.7713400   4.9666800   7.2248055   0.9740738  58.6805872
    3   3.9380000   4.3140400   5.8920400   0.8374877   0.2041810  12.9344707
    4   3.9380000   4.1986200   4.1079600   0.8513202   0.2128703  12.9942602
    5   3.9380000   5.8013800   4.9000400   0.8175563   0.2178969  12.7330369
 --------------------------------------------------------------------------------
    VACUUM CHARGE:               0.0368
    VACUUM VOLUME:             886.0668
    NUMBER OF ELECTRONS:        14.0000
