   5   5   1   0
  0.2000000E+03  0.1000000E-08  0.1000000E-08  0.1000000E-08  0.2000000E-15
  1.000000000000000E-004
  CAR 
 unknown system                          
      2.11170884    -22.24743391  301     -6.67849263      1.00000000
    -22.247  0.0000E+00  0.0000E+00  0.0000E+00  0.0000E+00
    -22.166  0.0000E+00  0.0000E+00  0.0000E+00  0.0000E+00
    -22.085  0.0000E+00  0.0000E+00  0.0000E+00  0.0000E+00
    -22.004  0.8628E-29  0.8627E-29  0.7006E-30  0.7005E-30
    -21.923  0.4048E-23  0.4048E-23  0.3287E-24  0.3287E-24
    -21.841  0.4898E-18  0.4897E-18  0.3977E-19  0.3977E-19
    -21.760  0.1512E-13  0.1512E-13  0.1228E-14  0.1228E-14
    -21.679  0.1176E-09  0.1175E-09  0.9547E-11  0.9546E-11
    -21.598  0.2233E-06  0.2233E-06  0.1814E-07  0.1814E-07
    -21.517  0.9873E-04  0.9873E-04  0.8035E-05  0.8035E-05
    -21.435  0.9025E-02  0.9024E-02  0.7408E-03  0.7408E-03
    -21.354  0.1036E+00  0.1036E+00  0.9154E-02  0.9154E-02
    -21.273 -0.7410E+00 -0.7410E+00 -0.5102E-01 -0.5101E-01
    -21.192  0.1911E+01  0.1910E+01  0.1041E+00  0.1041E+00
    -21.111  0.1823E+02  0.1823E+02  0.1584E+01  0.1584E+01
    -21.029  0.6242E+01  0.6242E+01  0.2091E+01  0.2091E+01
    -20.948 -0.1234E+01 -0.1234E+01  0.1991E+01  0.1991E+01
    -20.867  0.8954E-01  0.8954E-01  0.1998E+01  0.1998E+01
    -20.786  0.2262E-01  0.2262E-01  0.2000E+01  0.2000E+01
    -20.705  0.3989E-03  0.3989E-03  0.2000E+01  0.2000E+01
    -20.623  0.1363E-05  0.1363E-05  0.2000E+01  0.2000E+01
    -20.542  0.1061E-08  0.1061E-08  0.2000E+01  0.2000E+01
    -20.461  0.1996E-12  0.1996E-12  0.2000E+01  0.2000E+01
    -20.380  0.0000E+00  0.0000E+00  0.2000E+01  0.2000E+01
    -20.299  0.0000E+00  0.0000E+00  0.2000E+01  0.2000E+01
    -20.218  0.0000E+00  0.0000E+00  0.2000E+01  0.2000E+01
    -20.136  0.0000E+00  0.0000E+00  0.2000E+01  0.2000E+01
    -20.055  0.0000E+00  0.0000E+00  0.2000E+01  0.2000E+01
    -19.974  0.0000E+00  0.0000E+00  0.2000E+01  0.2000E+01
    -19.893  0.0000E+00  0.0000E+00  0.2000E+01  0.2000E+01
    -19.812  0.0000E+00  0.0000E+00  0.2000E+01  0.2000E+01
    -19.730  0.0000E+00  0.0000E+00  0.2000E+01  0.2000E+01
    -19.649  0.0000E+00  0.0000E+00  0.2000E+01  0.2000E+01
    -19.568  0.0000E+00  0.0000E+00  0.2000E+01  0.2000E+01
    -19.487  0.0000E+00  0.0000E+00  0.2000E+01  0.2000E+01
    -19.406  0.0000E+00  0.0000E+00  0.2000E+01  0.2000E+01
    -19.324  0.0000E+00  0.0000E+00  0.2000E+01  0.2000E+01
    -19.243  0.0000E+00  0.0000E+00  0.2000E+01  0.2000E+01
    -19.162  0.0000E+00  0.0000E+00  0.2000E+01  0.2000E+01
    -19.081  0.0000E+00  0.0000E+00  0.2000E+01  0.2000E+01
    -19.000  0.0000E+00  0.0000E+00  0.2000E+01  0.2000E+01
    -18.918  0.0000E+00  0.0000E+00  0.2000E+01  0.2000E+01
    -18.837  0.0000E+00  0.0000E+00  0.2000E+01  0.2000E+01
    -18.756  0.0000E+00  0.0000E+00  0.2000E+01  0.2000E+01
    -18.675  0.0000E+00  0.0000E+00  0.2000E+01  0.2000E+01
    -18.594  0.0000E+00  0.0000E+00  0.2000E+01  0.2000E+01
    -18.512  0.0000E+00  0.0000E+00  0.2000E+01  0.2000E+01
    -18.431  0.0000E+00  0.0000E+00  0.2000E+01  0.2000E+01
    -18.350  0.0000E+00  0.0000E+00  0.2000E+01  0.2000E+01
    -18.269  0.0000E+00  0.0000E+00  0.2000E+01  0.2000E+01
    -18.188  0.0000E+00  0.0000E+00  0.2000E+01  0.2000E+01
    -18.106  0.0000E+00  0.0000E+00  0.2000E+01  0.2000E+01
    -18.025  0.0000E+00  0.0000E+00  0.2000E+01  0.2000E+01
    -17.944  0.0000E+00  0.0000E+00  0.2000E+01  0.2000E+01
    -17.863  0.0000E+00  0.0000E+00  0.2000E+01  0.2000E+01
    -17.782  0.0000E+00  0.0000E+00  0.2000E+01  0.2000E+01
    -17.700  0.0000E+00  0.0000E+00  0.2000E+01  0.2000E+01
    -17.619  0.0000E+00  0.0000E+00  0.2000E+01  0.2000E+01
    -17.538  0.0000E+00  0.0000E+00  0.2000E+01  0.2000E+01
    -17.457  0.0000E+00  0.0000E+00  0.2000E+01  0.2000E+01
    -17.376  0.0000E+00  0.0000E+00  0.2000E+01  0.2000E+01
    -17.294  0.2048E-26  0.2049E-26  0.2000E+01  0.2000E+01
    -17.213  0.5546E-21  0.5547E-21  0.2000E+01  0.2000E+01
    -17.132  0.3858E-16  0.3859E-16  0.2000E+01  0.2000E+01
    -17.051  0.6824E-12  0.6825E-12  0.2000E+01  0.2000E+01
    -16.970  0.3001E-08  0.3001E-08  0.2000E+01  0.2000E+01
    -16.888  0.3178E-05  0.3179E-05  0.2000E+01  0.2000E+01
    -16.807  0.7569E-03  0.7570E-03  0.2000E+01  0.2000E+01
    -16.726  0.3350E-01  0.3351E-01  0.2003E+01  0.2003E+01
    -16.645  0.4190E-01  0.4190E-01  0.2006E+01  0.2006E+01
    -16.564 -0.1335E+01 -0.1335E+01  0.1898E+01  0.1898E+01
    -16.482  0.8838E+01  0.8838E+01  0.2615E+01  0.2615E+01
    -16.401  0.1698E+02  0.1698E+02  0.3994E+01  0.3994E+01
    -16.320  0.4588E+00  0.4588E+00  0.4032E+01  0.4032E+01
    -16.239 -0.4848E+00 -0.4848E+00  0.3992E+01  0.3992E+01
    -16.158  0.8997E-01  0.8997E-01  0.4000E+01  0.4000E+01
    -16.076  0.5455E-02  0.5455E-02  0.4000E+01  0.4000E+01
    -15.995  0.4773E-04  0.4773E-04  0.4000E+01  0.4000E+01
    -15.914  0.8845E-07  0.8844E-07  0.4000E+01  0.4000E+01
    -15.833  0.3849E-10  0.3849E-10  0.4000E+01  0.4000E+01
    -15.752  0.5469E-14  0.5469E-14  0.4000E+01  0.4000E+01
    -15.670  0.0000E+00  0.0000E+00  0.4000E+01  0.4000E+01
    -15.589  0.0000E+00  0.0000E+00  0.4000E+01  0.4000E+01
    -15.508  0.0000E+00  0.0000E+00  0.4000E+01  0.4000E+01
    -15.427  0.0000E+00  0.0000E+00  0.4000E+01  0.4000E+01
    -15.346  0.0000E+00  0.0000E+00  0.4000E+01  0.4000E+01
    -15.264  0.0000E+00  0.0000E+00  0.4000E+01  0.4000E+01
    -15.183  0.0000E+00  0.0000E+00  0.4000E+01  0.4000E+01
    -15.102  0.0000E+00  0.0000E+00  0.4000E+01  0.4000E+01
    -15.021  0.0000E+00  0.0000E+00  0.4000E+01  0.4000E+01
    -14.940  0.0000E+00  0.0000E+00  0.4000E+01  0.4000E+01
    -14.858  0.0000E+00  0.0000E+00  0.4000E+01  0.4000E+01
    -14.777  0.0000E+00  0.0000E+00  0.4000E+01  0.4000E+01
    -14.696  0.0000E+00  0.0000E+00  0.4000E+01  0.4000E+01
    -14.615  0.0000E+00  0.0000E+00  0.4000E+01  0.4000E+01
    -14.534  0.0000E+00  0.0000E+00  0.4000E+01  0.4000E+01
    -14.453  0.0000E+00  0.0000E+00  0.4000E+01  0.4000E+01
    -14.371  0.0000E+00  0.0000E+00  0.4000E+01  0.4000E+01
    -14.290  0.0000E+00  0.0000E+00  0.4000E+01  0.4000E+01
    -14.209  0.0000E+00  0.0000E+00  0.4000E+01  0.4000E+01
    -14.128  0.0000E+00  0.0000E+00  0.4000E+01  0.4000E+01
    -14.047  0.0000E+00  0.0000E+00  0.4000E+01  0.4000E+01
    -13.965  0.0000E+00  0.0000E+00  0.4000E+01  0.4000E+01
    -13.884  0.0000E+00  0.0000E+00  0.4000E+01  0.4000E+01
    -13.803  0.0000E+00  0.0000E+00  0.4000E+01  0.4000E+01
    -13.722  0.0000E+00  0.0000E+00  0.4000E+01  0.4000E+01
    -13.641  0.0000E+00  0.0000E+00  0.4000E+01  0.4000E+01
    -13.559  0.0000E+00  0.0000E+00  0.4000E+01  0.4000E+01
    -13.478  0.0000E+00  0.0000E+00  0.4000E+01  0.4000E+01
    -13.397  0.0000E+00  0.0000E+00  0.4000E+01  0.4000E+01
    -13.316  0.0000E+00  0.0000E+00  0.4000E+01  0.4000E+01
    -13.235  0.0000E+00  0.0000E+00  0.4000E+01  0.4000E+01
    -13.153  0.0000E+00  0.0000E+00  0.4000E+01  0.4000E+01
    -13.072  0.0000E+00  0.0000E+00  0.4000E+01  0.4000E+01
    -12.991  0.0000E+00  0.0000E+00  0.4000E+01  0.4000E+01
    -12.910  0.0000E+00  0.0000E+00  0.4000E+01  0.4000E+01
    -12.829  0.0000E+00  0.0000E+00  0.4000E+01  0.4000E+01
    -12.747  0.0000E+00  0.0000E+00  0.4000E+01  0.4000E+01
    -12.666  0.0000E+00  0.0000E+00  0.4000E+01  0.4000E+01
    -12.585  0.0000E+00  0.0000E+00  0.4000E+01  0.4000E+01
    -12.504  0.0000E+00  0.0000E+00  0.4000E+01  0.4000E+01
    -12.423  0.0000E+00  0.0000E+00  0.4000E+01  0.4000E+01
    -12.341  0.0000E+00  0.0000E+00  0.4000E+01  0.4000E+01
    -12.260  0.0000E+00  0.0000E+00  0.4000E+01  0.4000E+01
    -12.179  0.0000E+00  0.0000E+00  0.4000E+01  0.4000E+01
    -12.098  0.0000E+00  0.0000E+00  0.4000E+01  0.4000E+01
    -12.017  0.0000E+00  0.0000E+00  0.4000E+01  0.4000E+01
    -11.935  0.0000E+00  0.0000E+00  0.4000E+01  0.4000E+01
    -11.854  0.0000E+00  0.0000E+00  0.4000E+01  0.4000E+01
    -11.773  0.0000E+00  0.0000E+00  0.4000E+01  0.4000E+01
    -11.692  0.0000E+00  0.0000E+00  0.4000E+01  0.4000E+01
    -11.611  0.0000E+00  0.0000E+00  0.4000E+01  0.4000E+01
    -11.529  0.1315E-28  0.1345E-28  0.4000E+01  0.4000E+01
    -11.448  0.6021E-23  0.6138E-23  0.4000E+01  0.4000E+01
    -11.367  0.7140E-18  0.7258E-18  0.4000E+01  0.4000E+01
    -11.286  0.2174E-13  0.2204E-13  0.4000E+01  0.4000E+01
    -11.205  0.1682E-09  0.1700E-09  0.4000E+01  0.4000E+01
    -11.123  0.3216E-06  0.3241E-06  0.4000E+01  0.4000E+01
    -11.042  0.1456E-03  0.1463E-03  0.4000E+01  0.4000E+01
    -10.961  0.1400E-01  0.1404E-01  0.4001E+01  0.4001E+01
    -10.880  0.1853E+00  0.1852E+00  0.4016E+01  0.4016E+01
    -10.799 -0.1150E+01 -0.1151E+01  0.3923E+01  0.3923E+01
    -10.717  0.2108E+01  0.2119E+01  0.4094E+01  0.4095E+01
    -10.636  0.3433E+02  0.3431E+02  0.6882E+01  0.6881E+01
    -10.555  0.1612E+02  0.1612E+02  0.8190E+01  0.8190E+01
    -10.474 -0.2500E+01 -0.2496E+01  0.7987E+01  0.7988E+01
    -10.393  0.9562E-01  0.9472E-01  0.7995E+01  0.7995E+01
    -10.311  0.1465E+00  0.1465E+00  0.8007E+01  0.8007E+01
    -10.230 -0.4079E+00 -0.4079E+00  0.7974E+01  0.7974E+01
    -10.149  0.9057E-01  0.9057E-01  0.7981E+01  0.7981E+01
    -10.068  0.1643E+02  0.1643E+02  0.9315E+01  0.9315E+01
     -9.987  0.9705E+01  0.9705E+01  0.1010E+02  0.1010E+02
     -9.905 -0.1328E+01 -0.1328E+01  0.9995E+01  0.9995E+01
     -9.824  0.1806E-01  0.1806E-01  0.9997E+01  0.9997E+01
     -9.743  0.3770E-01  0.3770E-01  0.1000E+02  0.1000E+02
     -9.662  0.9253E-03  0.9253E-03  0.1000E+02  0.1000E+02
     -9.581  0.4155E-05  0.4155E-05  0.1000E+02  0.1000E+02
     -9.499  0.4177E-08  0.4177E-08  0.1000E+02  0.1000E+02
     -9.418  0.1006E-11  0.1006E-11  0.1000E+02  0.1000E+02
     -9.337  0.0000E+00  0.0000E+00  0.1000E+02  0.1000E+02
     -9.256  0.0000E+00  0.0000E+00  0.1000E+02  0.1000E+02
     -9.175  0.0000E+00  0.0000E+00  0.1000E+02  0.1000E+02
     -9.093  0.0000E+00  0.0000E+00  0.1000E+02  0.1000E+02
     -9.012  0.0000E+00  0.0000E+00  0.1000E+02  0.1000E+02
     -8.931  0.0000E+00  0.0000E+00  0.1000E+02  0.1000E+02
     -8.850  0.0000E+00  0.0000E+00  0.1000E+02  0.1000E+02
     -8.769  0.0000E+00  0.0000E+00  0.1000E+02  0.1000E+02
     -8.688  0.0000E+00  0.0000E+00  0.1000E+02  0.1000E+02
     -8.606  0.0000E+00  0.0000E+00  0.1000E+02  0.1000E+02
     -8.525  0.0000E+00  0.0000E+00  0.1000E+02  0.1000E+02
     -8.444  0.0000E+00  0.0000E+00  0.1000E+02  0.1000E+02
     -8.363  0.0000E+00  0.0000E+00  0.1000E+02  0.1000E+02
     -8.282  0.0000E+00  0.0000E+00  0.1000E+02  0.1000E+02
     -8.200  0.0000E+00  0.0000E+00  0.1000E+02  0.1000E+02
     -8.119  0.0000E+00  0.0000E+00  0.1000E+02  0.1000E+02
     -8.038  0.0000E+00  0.0000E+00  0.1000E+02  0.1000E+02
     -7.957  0.0000E+00  0.0000E+00  0.1000E+02  0.1000E+02
     -7.876  0.0000E+00  0.0000E+00  0.1000E+02  0.1000E+02
     -7.794  0.0000E+00  0.0000E+00  0.1000E+02  0.1000E+02
     -7.713  0.0000E+00  0.0000E+00  0.1000E+02  0.1000E+02
     -7.632  0.4279E-26  0.4281E-26  0.1000E+02  0.1000E+02
     -7.551  0.1074E-20  0.1074E-20  0.1000E+02  0.1000E+02
     -7.470  0.6921E-16  0.6924E-16  0.1000E+02  0.1000E+02
     -7.388  0.1134E-11  0.1134E-11  0.1000E+02  0.1000E+02
     -7.307  0.4609E-08  0.4610E-08  0.1000E+02  0.1000E+02
     -7.226  0.4508E-05  0.4509E-05  0.1000E+02  0.1000E+02
     -7.145  0.9908E-03  0.9910E-03  0.1000E+02  0.1000E+02
     -7.064  0.4069E-01  0.4070E-01  0.1000E+02  0.1000E+02
     -6.982  0.6270E-01  0.6267E-01  0.1001E+02  0.1001E+02
     -6.901 -0.1408E+01 -0.1408E+01  0.9894E+01  0.9894E+01
     -6.820  0.8824E+01  0.8825E+01  0.1061E+02  0.1061E+02
     -6.739  0.2859E+02  0.2859E+02  0.1293E+02  0.1293E+02
     -6.658  0.1434E+02  0.1434E+02  0.1410E+02  0.1410E+02
     -6.576 -0.1136E+01 -0.1136E+01  0.1400E+02  0.1400E+02
     -6.495 -0.1269E+00 -0.1269E+00  0.1399E+02  0.1399E+02
     -6.414  0.7097E-01  0.7098E-01  0.1400E+02  0.1400E+02
     -6.333  0.2712E-02  0.2712E-02  0.1400E+02  0.1400E+02
     -6.252  0.1765E-04  0.1766E-04  0.1400E+02  0.1400E+02
     -6.170  0.2517E-07  0.2517E-07  0.1400E+02  0.1400E+02
     -6.089  0.8532E-11  0.8538E-11  0.1400E+02  0.1400E+02
     -6.008  0.0000E+00  0.0000E+00  0.1400E+02  0.1400E+02
     -5.927  0.0000E+00  0.0000E+00  0.1400E+02  0.1400E+02
     -5.846  0.0000E+00  0.0000E+00  0.1400E+02  0.1400E+02
     -5.764  0.0000E+00  0.0000E+00  0.1400E+02  0.1400E+02
     -5.683  0.0000E+00  0.0000E+00  0.1400E+02  0.1400E+02
     -5.602  0.0000E+00  0.0000E+00  0.1400E+02  0.1400E+02
     -5.521  0.0000E+00  0.0000E+00  0.1400E+02  0.1400E+02
     -5.440  0.0000E+00  0.0000E+00  0.1400E+02  0.1400E+02
     -5.358  0.0000E+00  0.0000E+00  0.1400E+02  0.1400E+02
     -5.277  0.0000E+00  0.0000E+00  0.1400E+02  0.1400E+02
     -5.196  0.0000E+00  0.0000E+00  0.1400E+02  0.1400E+02
     -5.115  0.0000E+00  0.0000E+00  0.1400E+02  0.1400E+02
     -5.034  0.0000E+00  0.0000E+00  0.1400E+02  0.1400E+02
     -4.952  0.0000E+00  0.0000E+00  0.1400E+02  0.1400E+02
     -4.871  0.0000E+00  0.0000E+00  0.1400E+02  0.1400E+02
     -4.790  0.0000E+00  0.0000E+00  0.1400E+02  0.1400E+02
     -4.709  0.0000E+00  0.0000E+00  0.1400E+02  0.1400E+02
     -4.628  0.0000E+00  0.0000E+00  0.1400E+02  0.1400E+02
     -4.546  0.0000E+00  0.0000E+00  0.1400E+02  0.1400E+02
     -4.465  0.0000E+00  0.0000E+00  0.1400E+02  0.1400E+02
     -4.384  0.0000E+00  0.0000E+00  0.1400E+02  0.1400E+02
     -4.303  0.0000E+00  0.0000E+00  0.1400E+02  0.1400E+02
     -4.222  0.0000E+00  0.0000E+00  0.1400E+02  0.1400E+02
     -4.140  0.0000E+00  0.0000E+00  0.1400E+02  0.1400E+02
     -4.059  0.0000E+00  0.0000E+00  0.1400E+02  0.1400E+02
     -3.978  0.0000E+00  0.0000E+00  0.1400E+02  0.1400E+02
     -3.897  0.0000E+00  0.0000E+00  0.1400E+02  0.1400E+02
     -3.816  0.0000E+00  0.0000E+00  0.1400E+02  0.1400E+02
     -3.734  0.0000E+00  0.0000E+00  0.1400E+02  0.1400E+02
     -3.653  0.0000E+00  0.0000E+00  0.1400E+02  0.1400E+02
     -3.572  0.0000E+00  0.0000E+00  0.1400E+02  0.1400E+02
     -3.491  0.0000E+00  0.0000E+00  0.1400E+02  0.1400E+02
     -3.410  0.0000E+00  0.0000E+00  0.1400E+02  0.1400E+02
     -3.328  0.0000E+00  0.0000E+00  0.1400E+02  0.1400E+02
     -3.247  0.0000E+00  0.0000E+00  0.1400E+02  0.1400E+02
     -3.166  0.0000E+00  0.0000E+00  0.1400E+02  0.1400E+02
     -3.085  0.0000E+00  0.0000E+00  0.1400E+02  0.1400E+02
     -3.004  0.0000E+00  0.0000E+00  0.1400E+02  0.1400E+02
     -2.923  0.0000E+00  0.0000E+00  0.1400E+02  0.1400E+02
     -2.841  0.0000E+00  0.0000E+00  0.1400E+02  0.1400E+02
     -2.760  0.0000E+00  0.0000E+00  0.1400E+02  0.1400E+02
     -2.679  0.0000E+00  0.0000E+00  0.1400E+02  0.1400E+02
     -2.598  0.0000E+00  0.0000E+00  0.1400E+02  0.1400E+02
     -2.517  0.0000E+00  0.0000E+00  0.1400E+02  0.1400E+02
     -2.435  0.0000E+00  0.0000E+00  0.1400E+02  0.1400E+02
     -2.354  0.0000E+00  0.0000E+00  0.1400E+02  0.1400E+02
     -2.273  0.0000E+00  0.0000E+00  0.1400E+02  0.1400E+02
     -2.192  0.0000E+00  0.0000E+00  0.1400E+02  0.1400E+02
     -2.111  0.0000E+00  0.0000E+00  0.1400E+02  0.1400E+02
     -2.029  0.0000E+00  0.0000E+00  0.1400E+02  0.1400E+02
     -1.948  0.0000E+00  0.0000E+00  0.1400E+02  0.1400E+02
     -1.867  0.0000E+00  0.0000E+00  0.1400E+02  0.1400E+02
     -1.786  0.0000E+00  0.0000E+00  0.1400E+02  0.1400E+02
     -1.705  0.0000E+00  0.0000E+00  0.1400E+02  0.1400E+02
     -1.623  0.0000E+00  0.0000E+00  0.1400E+02  0.1400E+02
     -1.542  0.0000E+00  0.0000E+00  0.1400E+02  0.1400E+02
     -1.461  0.0000E+00  0.0000E+00  0.1400E+02  0.1400E+02
     -1.380  0.3760E-26  0.3796E-26  0.1400E+02  0.1400E+02
     -1.299  0.9564E-21  0.9646E-21  0.1400E+02  0.1400E+02
     -1.217  0.6247E-16  0.6294E-16  0.1400E+02  0.1400E+02
     -1.136  0.1036E-11  0.1043E-11  0.1400E+02  0.1400E+02
     -1.055  0.4273E-08  0.4296E-08  0.1400E+02  0.1400E+02
     -0.974  0.4232E-05  0.4251E-05  0.1400E+02  0.1400E+02
     -0.893  0.9381E-03  0.9412E-03  0.1400E+02  0.1400E+02
     -0.811  0.3800E-01  0.3808E-01  0.1400E+02  0.1400E+02
     -0.730  0.1625E-01  0.1581E-01  0.1400E+02  0.1400E+02
     -0.649 -0.1327E+01 -0.1326E+01  0.1390E+02  0.1390E+02
     -0.568  0.9765E+01  0.9780E+01  0.1469E+02  0.1469E+02
     -0.487  0.1639E+02  0.1638E+02  0.1602E+02  0.1602E+02
     -0.405  0.9406E-01  0.8839E-01  0.1603E+02  0.1603E+02
     -0.324 -0.3313E+00 -0.3301E+00  0.1600E+02  0.1600E+02
     -0.243 -0.1214E+01 -0.1214E+01  0.1590E+02  0.1590E+02
     -0.162  0.7365E+01  0.7370E+01  0.1650E+02  0.1650E+02
     -0.081  0.1777E+02  0.1777E+02  0.1794E+02  0.1794E+02
      0.001  0.1214E+01  0.1211E+01  0.1804E+02  0.1804E+02
      0.082 -0.6251E+00 -0.6245E+00  0.1799E+02  0.1799E+02
      0.163  0.9846E-01  0.9843E-01  0.1800E+02  0.1800E+02
      0.244  0.7263E-02  0.7255E-02  0.1800E+02  0.1800E+02
      0.325  0.7198E-04  0.7186E-04  0.1800E+02  0.1800E+02
      0.407  0.1492E-06  0.1489E-06  0.1800E+02  0.1800E+02
      0.488  0.2772E-06  0.2467E-06  0.1800E+02  0.1800E+02
      0.569  0.1253E-03  0.1158E-03  0.1800E+02  0.1800E+02
      0.650  0.1233E-01  0.1187E-01  0.1800E+02  0.1800E+02
      0.731  0.1878E+00  0.1898E+00  0.1802E+02  0.1802E+02
      0.813 -0.8439E+00 -0.8328E+00  0.1795E+02  0.1795E+02
      0.894 -0.8831E-03 -0.1682E+00  0.1795E+02  0.1794E+02
      0.975  0.3807E+02  0.3841E+02  0.2104E+02  0.2105E+02
      1.056  0.3735E+02  0.3725E+02  0.2407E+02  0.2408E+02
      1.137 -0.2862E+00 -0.3992E+00  0.2405E+02  0.2405E+02
      1.219 -0.7845E+00 -0.7609E+00  0.2398E+02  0.2398E+02
      1.300  0.1836E+00  0.1817E+00  0.2400E+02  0.2400E+02
      1.381  0.1146E-01  0.1128E-01  0.2400E+02  0.2400E+02
      1.462  0.1124E-03  0.1107E-03  0.2400E+02  0.2400E+02
      1.543  0.2405E-06  0.2375E-06  0.2400E+02  0.2400E+02
      1.625  0.1228E-09  0.1216E-09  0.2400E+02  0.2400E+02
      1.706  0.1641E-13  0.1641E-13  0.2400E+02  0.2400E+02
      1.787  0.0000E+00  0.0000E+00  0.2400E+02  0.2400E+02
      1.868  0.0000E+00  0.0000E+00  0.2400E+02  0.2400E+02
      1.949  0.0000E+00  0.0000E+00  0.2400E+02  0.2400E+02
      2.031  0.0000E+00  0.0000E+00  0.2400E+02  0.2400E+02
      2.112  0.0000E+00  0.0000E+00  0.2400E+02  0.2400E+02
      2.11170884    -22.24743391  301     -6.67849263      1.00000000
    -22.247  0.0000E+00  0.0000E+00  0.0000E+00  0.0000E+00  0.0000E+00  0.0000E+00  0.0000E+00  0.0000E+00  0.0000E+00  0.0000E+00  0.0000E+00  0.0000E+00  0.0000E+00  0.0000E+00  0.0000E+00  0.0000E+00  0.0000E+00  0.0000E+00
    -22.166  0.0000E+00  0.0000E+00  0.0000E+00  0.0000E+00  0.0000E+00  0.0000E+00  0.0000E+00  0.0000E+00  0.0000E+00  0.0000E+00  0.0000E+00  0.0000E+00  0.0000E+00  0.0000E+00  0.0000E+00  0.0000E+00  0.0000E+00  0.0000E+00
    -22.085  0.0000E+00  0.0000E+00  0.0000E+00  0.0000E+00  0.0000E+00  0.0000E+00  0.0000E+00  0.0000E+00  0.0000E+00  0.0000E+00  0.0000E+00  0.0000E+00  0.0000E+00  0.0000E+00  0.0000E+00  0.0000E+00  0.0000E+00  0.0000E+00
    -22.004  0.1107E-29  0.1107E-29  0.1107E-38  0.3142E-38  0.1654E-37  0.1911E-37  0.1302E-30  0.1301E-30  0.0000E+00  0.0000E+00  0.0000E+00  0.0000E+00  0.0000E+00  0.0000E+00  0.0000E+00  0.0000E+00  0.0000E+00  0.0000E+00
    -21.923  0.5193E-24  0.5192E-24  0.5193E-33  0.1474E-32  0.7759E-32  0.8965E-32  0.6106E-25  0.6106E-25  0.0000E+00  0.0000E+00  0.0000E+00  0.0000E+00  0.0000E+00  0.0000E+00  0.0000E+00  0.0000E+00  0.0000E+00  0.0000E+00
    -21.841  0.6283E-19  0.6283E-19  0.6283E-28  0.1784E-27  0.9388E-27  0.1085E-26  0.7389E-20  0.7388E-20  0.0000E+00  0.0000E+00  0.0000E+00  0.0000E+00  0.0000E+00  0.0000E+00  0.0000E+00  0.0000E+00  0.0000E+00  0.0000E+00
    -21.760  0.1940E-14  0.1940E-14  0.1940E-23  0.5507E-23  0.2899E-22  0.3349E-22  0.2281E-15  0.2281E-15  0.0000E+00  0.0000E+00  0.0000E+00  0.0000E+00  0.0000E+00  0.0000E+00  0.0000E+00  0.0000E+00  0.0000E+00  0.0000E+00
    -21.679  0.1508E-10  0.1508E-10  0.1508E-19  0.4281E-19  0.2253E-18  0.2604E-18  0.1773E-11  0.1773E-11  0.0000E+00  0.0000E+00  0.0000E+00  0.0000E+00  0.0000E+00  0.0000E+00  0.0000E+00  0.0000E+00  0.0000E+00  0.0000E+00
    -21.598  0.2864E-07  0.2864E-07  0.2864E-16  0.8132E-16  0.4280E-15  0.4945E-15  0.3368E-08  0.3368E-08  0.0000E+00  0.0000E+00  0.0000E+00  0.0000E+00  0.0000E+00  0.0000E+00  0.0000E+00  0.0000E+00  0.0000E+00  0.0000E+00
    -21.517  0.1267E-04  0.1267E-04  0.1267E-13  0.3596E-13  0.1892E-12  0.2187E-12  0.1489E-05  0.1489E-05  0.0000E+00  0.0000E+00  0.0000E+00  0.0000E+00  0.0000E+00  0.0000E+00  0.0000E+00  0.0000E+00  0.0000E+00  0.0000E+00
    -21.435  0.1158E-02  0.1158E-02  0.1158E-11  0.3287E-11  0.1730E-10  0.1999E-10  0.1361E-03  0.1361E-03  0.0000E+00  0.0000E+00  0.0000E+00  0.0000E+00  0.0000E+00  0.0000E+00  0.0000E+00  0.0000E+00  0.0000E+00  0.0000E+00
    -21.354  0.1329E-01  0.1329E-01  0.1329E-10  0.3774E-10  0.1986E-09  0.2295E-09  0.1563E-02  0.1563E-02  0.0000E+00  0.0000E+00  0.0000E+00  0.0000E+00  0.0000E+00  0.0000E+00  0.0000E+00  0.0000E+00  0.0000E+00  0.0000E+00
    -21.273 -0.9506E-01 -0.9506E-01 -0.9506E-10 -0.2699E-09 -0.1420E-08 -0.1641E-08 -0.1118E-01 -0.1118E-01  0.0000E+00  0.0000E+00  0.0000E+00  0.0000E+00  0.0000E+00  0.0000E+00  0.0000E+00  0.0000E+00  0.0000E+00  0.0000E+00
    -21.192  0.2451E+00  0.2451E+00  0.2451E-09  0.6958E-09  0.3662E-08  0.4231E-08  0.2882E-01  0.2882E-01  0.0000E+00  0.0000E+00  0.0000E+00  0.0000E+00  0.0000E+00  0.0000E+00  0.0000E+00  0.0000E+00  0.0000E+00  0.0000E+00
    -21.111  0.2338E+01  0.2338E+01  0.2338E-08  0.6639E-08  0.3494E-07  0.4038E-07  0.2750E+00  0.2750E+00  0.0000E+00  0.0000E+00  0.0000E+00  0.0000E+00  0.0000E+00  0.0000E+00  0.0000E+00  0.0000E+00  0.0000E+00  0.0000E+00
    -21.029  0.8007E+00  0.8007E+00  0.8007E-09  0.2273E-08  0.1196E-07  0.1383E-07  0.9415E-01  0.9416E-01  0.0000E+00  0.0000E+00  0.0000E+00  0.0000E+00  0.0000E+00  0.0000E+00  0.0000E+00  0.0000E+00  0.0000E+00  0.0000E+00
    -20.948 -0.1583E+00 -0.1583E+00 -0.1583E-09 -0.4495E-09 -0.2365E-08 -0.2734E-08 -0.1862E-01 -0.1862E-01  0.0000E+00  0.0000E+00  0.0000E+00  0.0000E+00  0.0000E+00  0.0000E+00  0.0000E+00  0.0000E+00  0.0000E+00  0.0000E+00
    -20.867  0.1149E-01  0.1149E-01  0.1149E-10  0.3261E-10  0.1716E-09  0.1983E-09  0.1351E-02  0.1351E-02  0.0000E+00  0.0000E+00  0.0000E+00  0.0000E+00  0.0000E+00  0.0000E+00  0.0000E+00  0.0000E+00  0.0000E+00  0.0000E+00
    -20.786  0.2902E-02  0.2902E-02  0.2902E-11  0.8240E-11  0.4336E-10  0.5011E-10  0.3413E-03  0.3413E-03  0.0000E+00  0.0000E+00  0.0000E+00  0.0000E+00  0.0000E+00  0.0000E+00  0.0000E+00  0.0000E+00  0.0000E+00  0.0000E+00
    -20.705  0.5117E-04  0.5117E-04  0.5116E-13  0.1453E-12  0.7645E-12  0.8835E-12  0.6017E-05  0.6017E-05  0.0000E+00  0.0000E+00  0.0000E+00  0.0000E+00  0.0000E+00  0.0000E+00  0.0000E+00  0.0000E+00  0.0000E+00  0.0000E+00
    -20.623  0.1749E-06  0.1749E-06  0.1748E-15  0.4964E-15  0.2613E-14  0.3019E-14  0.2056E-07  0.2056E-07  0.0000E+00  0.0000E+00  0.0000E+00  0.0000E+00  0.0000E+00  0.0000E+00  0.0000E+00  0.0000E+00  0.0000E+00  0.0000E+00
    -20.542  0.1361E-09  0.1361E-09  0.1361E-18  0.3864E-18  0.2034E-17  0.2350E-17  0.1600E-10  0.1601E-10  0.0000E+00  0.0000E+00  0.0000E+00  0.0000E+00  0.0000E+00  0.0000E+00  0.0000E+00  0.0000E+00  0.0000E+00  0.0000E+00
    -20.461  0.2561E-13  0.2561E-13  0.2561E-22  0.7270E-22  0.3826E-21  0.4422E-21  0.3011E-14  0.3011E-14  0.0000E+00  0.0000E+00  0.0000E+00  0.0000E+00  0.0000E+00  0.0000E+00  0.0000E+00  0.0000E+00  0.0000E+00  0.0000E+00
    -20.380  0.0000E+00  0.0000E+00  0.0000E+00  0.0000E+00  0.0000E+00  0.0000E+00  0.0000E+00  0.0000E+00  0.0000E+00  0.0000E+00  0.0000E+00  0.0000E+00  0.0000E+00  0.0000E+00  0.0000E+00  0.0000E+00  0.0000E+00  0.0000E+00
    -20.299  0.0000E+00  0.0000E+00  0.0000E+00  0.0000E+00  0.0000E+00  0.0000E+00  0.0000E+00  0.0000E+00  0.0000E+00  0.0000E+00  0.0000E+00  0.0000E+00  0.0000E+00  0.0000E+00  0.0000E+00  0.0000E+00  0.0000E+00  0.0000E+00
    -20.218  0.0000E+00  0.0000E+00  0.0000E+00  0.0000E+00  0.0000E+00  0.0000E+00  0.0000E+00  0.0000E+00  0.0000E+00  0.0000E+00  0.0000E+00  0.0000E+00  0.0000E+00  0.0000E+00  0.0000E+00  0.0000E+00  0.0000E+00  0.0000E+00
    -20.136  0.0000E+00  0.0000E+00  0.0000E+00  0.0000E+00  0.0000E+00  0.0000E+00  0.0000E+00  0.0000E+00  0.0000E+00  0.0000E+00  0.0000E+00  0.0000E+00  0.0000E+00  0.0000E+00  0.0000E+00  0.0000E+00  0.0000E+00  0.0000E+00
    -20.055  0.0000E+00  0.0000E+00  0.0000E+00  0.0000E+00  0.0000E+00  0.0000E+00  0.0000E+00  0.0000E+00  0.0000E+00  0.0000E+00  0.0000E+00  0.0000E+00  0.0000E+00  0.0000E+00  0.0000E+00  0.0000E+00  0.0000E+00  0.0000E+00
    -19.974  0.0000E+00  0.0000E+00  0.0000E+00  0.0000E+00  0.0000E+00  0.0000E+00  0.0000E+00  0.0000E+00  0.0000E+00  0.0000E+00  0.0000E+00  0.0000E+00  0.0000E+00  0.0000E+00  0.0000E+00  0.0000E+00  0.0000E+00  0.0000E+00
    -19.893  0.0000E+00  0.0000E+00  0.0000E+00  0.0000E+00  0.0000E+00  0.0000E+00  0.0000E+00  0.0000E+00  0.0000E+00  0.0000E+00  0.0000E+00  0.0000E+00  0.0000E+00  0.0000E+00  0.0000E+00  0.0000E+00  0.0000E+00  0.0000E+00
    -19.812  0.0000E+00  0.0000E+00  0.0000E+00  0.0000E+00  0.0000E+00  0.0000E+00  0.0000E+00  0.0000E+00  0.0000E+00  0.0000E+00  0.0000E+00  0.0000E+00  0.0000E+00  0.0000E+00  0.0000E+00  0.0000E+00  0.0000E+00  0.0000E+00
    -19.730  0.0000E+00  0.0000E+00  0.0000E+00  0.0000E+00  0.0000E+00  0.0000E+00  0.0000E+00  0.0000E+00  0.0000E+00  0.0000E+00  0.0000E+00  0.0000E+00  0.0000E+00  0.0000E+00  0.0000E+00  0.0000E+00  0.0000E+00  0.0000E+00
    -19.649  0.0000E+00  0.0000E+00  0.0000E+00  0.0000E+00  0.0000E+00  0.0000E+00  0.0000E+00  0.0000E+00  0.0000E+00  0.0000E+00  0.0000E+00  0.0000E+00  0.0000E+00  0.0000E+00  0.0000E+00  0.0000E+00  0.0000E+00  0.0000E+00
    -19.568  0.0000E+00  0.0000E+00  0.0000E+00  0.0000E+00  0.0000E+00  0.0000E+00  0.0000E+00  0.0000E+00  0.0000E+00  0.0000E+00  0.0000E+00  0.0000E+00  0.0000E+00  0.0000E+00  0.0000E+00  0.0000E+00  0.0000E+00  0.0000E+00
    -19.487  0.0000E+00  0.0000E+00  0.0000E+00  0.0000E+00  0.0000E+00  0.0000E+00  0.0000E+00  0.0000E+00  0.0000E+00  0.0000E+00  0.0000E+00  0.0000E+00  0.0000E+00  0.0000E+00  0.0000E+00  0.0000E+00  0.0000E+00  0.0000E+00
    -19.406  0.0000E+00  0.0000E+00  0.0000E+00  0.0000E+00  0.0000E+00  0.0000E+00  0.0000E+00  0.0000E+00  0.0000E+00  0.0000E+00  0.0000E+00  0.0000E+00  0.0000E+00  0.0000E+00  0.0000E+00  0.0000E+00  0.0000E+00  0.0000E+00
    -19.324  0.0000E+00  0.0000E+00  0.0000E+00  0.0000E+00  0.0000E+00  0.0000E+00  0.0000E+00  0.0000E+00  0.0000E+00  0.0000E+00  0.0000E+00  0.0000E+00  0.0000E+00  0.0000E+00  0.0000E+00  0.0000E+00  0.0000E+00  0.0000E+00
    -19.243  0.0000E+00  0.0000E+00  0.0000E+00  0.0000E+00  0.0000E+00  0.0000E+00  0.0000E+00  0.0000E+00  0.0000E+00  0.0000E+00  0.0000E+00  0.0000E+00  0.0000E+00  0.0000E+00  0.0000E+00  0.0000E+00  0.0000E+00  0.0000E+00
    -19.162  0.0000E+00  0.0000E+00  0.0000E+00  0.0000E+00  0.0000E+00  0.0000E+00  0.0000E+00  0.0000E+00  0.0000E+00  0.0000E+00  0.0000E+00  0.0000E+00  0.0000E+00  0.0000E+00  0.0000E+00  0.0000E+00  0.0000E+00  0.0000E+00
    -19.081  0.0000E+00  0.0000E+00  0.0000E+00  0.0000E+00  0.0000E+00  0.0000E+00  0.0000E+00  0.0000E+00  0.0000E+00  0.0000E+00  0.0000E+00  0.0000E+00  0.0000E+00  0.0000E+00  0.0000E+00  0.0000E+00  0.0000E+00  0.0000E+00
    -19.000  0.0000E+00  0.0000E+00  0.0000E+00  0.0000E+00  0.0000E+00  0.0000E+00  0.0000E+00  0.0000E+00  0.0000E+00  0.0000E+00  0.0000E+00  0.0000E+00  0.0000E+00  0.0000E+00  0.0000E+00  0.0000E+00  0.0000E+00  0.0000E+00
    -18.918  0.0000E+00  0.0000E+00  0.0000E+00  0.0000E+00  0.0000E+00  0.0000E+00  0.0000E+00  0.0000E+00  0.0000E+00  0.0000E+00  0.0000E+00  0.0000E+00  0.0000E+00  0.0000E+00  0.0000E+00  0.0000E+00  0.0000E+00  0.0000E+00
    -18.837  0.0000E+00  0.0000E+00  0.0000E+00  0.0000E+00  0.0000E+00  0.0000E+00  0.0000E+00  0.0000E+00  0.0000E+00  0.0000E+00  0.0000E+00  0.0000E+00  0.0000E+00  0.0000E+00  0.0000E+00  0.0000E+00  0.0000E+00  0.0000E+00
    -18.756  0.0000E+00  0.0000E+00  0.0000E+00  0.0000E+00  0.0000E+00  0.0000E+00  0.0000E+00  0.0000E+00  0.0000E+00  0.0000E+00  0.0000E+00  0.0000E+00  0.0000E+00  0.0000E+00  0.0000E+00  0.0000E+00  0.0000E+00  0.0000E+00
    -18.675  0.0000E+00  0.0000E+00  0.0000E+00  0.0000E+00  0.0000E+00  0.0000E+00  0.0000E+00  0.0000E+00  0.0000E+00  0.0000E+00  0.0000E+00  0.0000E+00  0.0000E+00  0.0000E+00  0.0000E+00  0.0000E+00  0.0000E+00  0.0000E+00
    -18.594  0.0000E+00  0.0000E+00  0.0000E+00  0.0000E+00  0.0000E+00  0.0000E+00  0.0000E+00  0.0000E+00  0.0000E+00  0.0000E+00  0.0000E+00  0.0000E+00  0.0000E+00  0.0000E+00  0.0000E+00  0.0000E+00  0.0000E+00  0.0000E+00
    -18.512  0.0000E+00  0.0000E+00  0.0000E+00  0.0000E+00  0.0000E+00  0.0000E+00  0.0000E+00  0.0000E+00  0.0000E+00  0.0000E+00  0.0000E+00  0.0000E+00  0.0000E+00  0.0000E+00  0.0000E+00  0.0000E+00  0.0000E+00  0.0000E+00
    -18.431  0.0000E+00  0.0000E+00  0.0000E+00  0.0000E+00  0.0000E+00  0.0000E+00  0.0000E+00  0.0000E+00  0.0000E+00  0.0000E+00  0.0000E+00  0.0000E+00  0.0000E+00  0.0000E+00  0.0000E+00  0.0000E+00  0.0000E+00  0.0000E+00
    -18.350  0.0000E+00  0.0000E+00  0.0000E+00  0.0000E+00  0.0000E+00  0.0000E+00  0.0000E+00  0.0000E+00  0.0000E+00  0.0000E+00  0.0000E+00  0.0000E+00  0.0000E+00  0.0000E+00  0.0000E+00  0.0000E+00  0.0000E+00  0.0000E+00
    -18.269  0.0000E+00  0.0000E+00  0.0000E+00  0.0000E+00  0.0000E+00  0.0000E+00  0.0000E+00  0.0000E+00  0.0000E+00  0.0000E+00  0.0000E+00  0.0000E+00  0.0000E+00  0.0000E+00  0.0000E+00  0.0000E+00  0.0000E+00  0.0000E+00
    -18.188  0.0000E+00  0.0000E+00  0.0000E+00  0.0000E+00  0.0000E+00  0.0000E+00  0.0000E+00  0.0000E+00  0.0000E+00  0.0000E+00  0.0000E+00  0.0000E+00  0.0000E+00  0.0000E+00  0.0000E+00  0.0000E+00  0.0000E+00  0.0000E+00