    5    5    1    2
  0.2000000E+03  0.1000000E-08  0.1000000E-08  0.1000000E-08  0.2000000E-15
  1.000000000000000E-004
  CAR 
 unknown system                          
     14      1     12
 
  0.0000000E+00  0.0000000E+00  0.0000000E+00  0.1000000E+01
    1      -21.140200    -21.140199   1.000000   1.000000
    2      -16.463763    -16.463764   1.000000   1.000000
    3      -10.668054    -10.668195   1.000000   1.000000
    4      -10.648618    -10.648477   1.000000   1.000000
    5      -10.083028    -10.083028   1.000000   1.000000
    6       -6.805852     -6.805856   1.030790   1.030781
    7       -6.734386     -6.734382   0.969210   0.969219
    8       -0.552872     -0.552931   0.000000   0.000000
    9       -0.137055     -0.137080   0.000000   0.000000
   10        0.943679      0.945362   0.000000   0.000000
   11        0.974528      0.972464   0.000000   0.000000
   12        1.004475      1.004459   0.000000   0.000000
