       N       E                     dE             d eps       ncg     rms          rms(c)
DAV:   1     0.900467792733E+02    0.90047E+02   -0.32056E+03    60   0.444E+02
DAV:   2     0.816495593619E+01   -0.81882E+02   -0.81866E+02    60   0.103E+02
DAV:   3    -0.232469762415E+02   -0.31412E+02   -0.31413E+02    60   0.709E+01
DAV:   4    -0.243949425066E+02   -0.11480E+01   -0.11499E+01    96   0.167E+01
DAV:   5    -0.243958662908E+02   -0.92378E-03   -0.92362E-03    60   0.431E-01    0.122E+01
RMM:   6    -0.227151614868E+02    0.16807E+01   -0.26340E+00    64   0.822E+00    0.573E+00
RMM:   7    -0.223594272080E+02    0.35573E+00   -0.74733E-01    68   0.445E+00    0.218E+00
RMM:   8    -0.222930602713E+02    0.66367E-01   -0.15205E-01    68   0.219E+00    0.526E-01
RMM:   9    -0.222890617006E+02    0.39986E-02   -0.90433E-03    64   0.659E-01    0.229E-01
RMM:  10    -0.222918714560E+02   -0.28098E-02   -0.25953E-03    67   0.333E-01    0.211E-01
RMM:  11    -0.222894869697E+02    0.23845E-02   -0.54240E-03    64   0.458E-01    0.526E-01
RMM:  12    -0.222913370911E+02   -0.18501E-02   -0.83146E-04    57   0.169E-01    0.505E-01
RMM:  13    -0.222973368738E+02   -0.59998E-02   -0.58843E-03    54   0.459E-01    0.267E-01
RMM:  14    -0.223007105668E+02   -0.33737E-02   -0.62810E-04    57   0.141E-01    0.193E-01
RMM:  15    -0.223026066904E+02   -0.18961E-02   -0.15034E-03    56   0.232E-01    0.290E-01
RMM:  16    -0.223047139021E+02   -0.21072E-02   -0.67527E-04    62   0.157E-01    0.890E-02
RMM:  17    -0.223046723859E+02    0.41516E-04   -0.37086E-05    70   0.377E-02    0.102E-01
RMM:  18    -0.223050785194E+02   -0.40613E-03   -0.49127E-05    64   0.426E-02    0.278E-02
RMM:  19    -0.223059438797E+02   -0.86536E-03   -0.10098E-04    54   0.527E-02    0.137E-02
RMM:  20    -0.223062005259E+02   -0.25665E-03   -0.29859E-05    60   0.301E-02    0.330E-02
RMM:  21    -0.223064515170E+02   -0.25099E-03   -0.27147E-05    52   0.239E-02    0.104E-02
RMM:  22    -0.223065042319E+02   -0.52715E-04   -0.92431E-06    62   0.176E-02    0.216E-02
RMM:  23    -0.223065530786E+02   -0.48847E-04   -0.42930E-06    53   0.120E-02    0.364E-03
RMM:  24    -0.223065780256E+02   -0.24947E-04   -0.14281E-06    41   0.734E-03    0.761E-03
RMM:  25    -0.223065827053E+02   -0.46796E-05   -0.48940E-07    46   0.435E-03    0.286E-03
RMM:  26    -0.223065890229E+02   -0.63177E-05   -0.24970E-07    40   0.301E-03    0.173E-03
RMM:  27    -0.223065901805E+02   -0.11576E-05   -0.60928E-08    40   0.167E-03    0.113E-03
RMM:  28    -0.223065908107E+02   -0.63016E-06    0.00000E+00    34   0.121E-03
   1 F= -.22306591E+02 E0= -.22309121E+02  d E =0.101213E-01  mag=     0.0000
