 vasp.5.4.1 24Jun15 (build Jul 07 2016 20:05:55) complex                        
  
 executed on           IFC91_ompi date 2017.12.22  15:45:58
 running on   12 total cores
 distrk:  each k-point on   12 cores,    1 groups
 distr:  one band on NCORES_PER_BAND=   1 cores,   12 groups


--------------------------------------------------------------------------------------------------------


 INCAR:
 POTCAR:    PAW_PBE C 08Apr2002                   
 POTCAR:    PAW_PBE Cl 06Sep2000                  
 POTCAR:    PAW_PBE H 15Jun2001                   

 ----------------------------------------------------------------------------- 
|                                                                             |
|           W    W    AA    RRRRR   N    N  II  N    N   GGGG   !!!           |
|           W    W   A  A   R    R  NN   N  II  NN   N  G    G  !!!           |
|           W    W  A    A  R    R  N N  N  II  N N  N  G       !!!           |
|           W WW W  AAAAAA  RRRRR   N  N N  II  N  N N  G  GGG   !            |
|           WW  WW  A    A  R   R   N   NN  II  N   NN  G    G                |
|           W    W  A    A  R    R  N    N  II  N    N   GGGG   !!!           |
|                                                                             |
|      For optimal performance we recommend to set                            |
|        NCORE= 4 - approx SQRT( number of cores)                             |
|      NCORE specifies how many cores store one orbital (NPAR=cpu/NCORE).     |
|      This setting can  greatly improve the performance of VASP for DFT.     |
|      The default, NPAR=number of cores might be grossly inefficient         |
|      on modern multi-core architectures or massively parallel machines.     |
|      Do your own testing !!!!                                               |
|      Unfortunately you need to use the default for GW and RPA calculations. |
|      (for HF NCORE is supported but not extensively tested yet)             |
|                                                                             |
 ----------------------------------------------------------------------------- 

 POTCAR:    PAW_PBE C 08Apr2002                   
   VRHFIN =C: s2p2                                                              
   LEXCH  = PE                                                                  
   EATOM  =   147.1560 eV,   10.8157 Ry                                         
                                                                                
   TITEL  = PAW_PBE C 08Apr2002                                                 
   LULTRA =        F    use ultrasoft PP ?                                      
   IUNSCR =        1    unscreen: 0-lin 1-nonlin 2-no                           
   RPACOR =    1.200    partial core radius                                     
   POMASS =   12.011; ZVAL   =    4.000    mass and valenz                      
   RCORE  =    1.500    outmost cutoff radius                                   
   RWIGS  =    1.630; RWIGS  =    0.863    wigner-seitz radius (au A)           
   ENMAX  =  400.000; ENMIN  =  300.000 eV                                      
   ICORE  =        2    local potential                                         
   LCOR   =        T    correct aug charges                                     
   LPAW   =        T    paw PP                                                  
   EAUG   =  644.873                                                            
   DEXC   =    0.000                                                            
   RMAX   =    1.529    core radius for proj-oper                               
   RAUG   =    1.300    factor for augmentation sphere                          
   RDEP   =    1.501    radius for radial grids                                 
   RDEPT  =    1.300    core radius for aug-charge                              
                                                                                
   Atomic configuration                                                         
    4 entries                                                                   
     n  l   j            E        occ.                                          
     1  0  0.50      -273.3789   2.0000                                         
     2  0  0.50       -13.7508   2.0000                                         
     2  1  0.50        -5.2854   2.0000                                         
     3  2  1.50        -5.4423   0.0000                                         
   Description                                                                  
     l       E           TYP  RCUT    TYP  RCUT                                 
     0    -13.7508458     23  1.200                                             
     0     -8.2022199     23  1.200                                             
     1     -5.2854383     23  1.500                                             
     1     34.0145650     23  1.500                                             
     2     -5.4423304      7  1.500                                             
  local pseudopotential read in
  partial core-charges read in
  partial kinetic energy density read in
  atomic valenz-charges read in
  non local Contribution for L=           0  read in
    real space projection operators read in
  non local Contribution for L=           0  read in
    real space projection operators read in
  non local Contribution for L=           1  read in
    real space projection operators read in
  non local Contribution for L=           1  read in
    real space projection operators read in
    PAW grid and wavefunctions read in
 
   number of l-projection  operators is LMAX  =           4
   number of lm-projection operators is LMMAX =           8
 
 POTCAR:    PAW_PBE Cl 06Sep2000                  
   VRHFIN =Cl: s2p5                                                             
   LEXCH  = PE                                                                  
   EATOM  =   409.7259 eV,   30.1140 Ry                                         
                                                                                
   TITEL  = PAW_PBE Cl 06Sep2000                                                
   LULTRA =        F    use ultrasoft PP ?                                      
   IUNSCR =        1    unscreen: 0-lin 1-nonlin 2-no                           
   RPACOR =    1.500    partial core radius                                     
   POMASS =   35.453; ZVAL   =    7.000    mass and valenz                      
   RCORE  =    1.900    outmost cutoff radius                                   
   RWIGS  =    2.100; RWIGS  =    1.111    wigner-seitz radius (au A)           
   ENMAX  =  262.472; ENMIN  =  196.854 eV                                      
   ICORE  =        2    local potential                                         
   LCOR   =        T    correct aug charges                                     
   LPAW   =        T    paw PP                                                  
   EAUG   =  356.192                                                            
   DEXC   =    0.000                                                            
   RMAX   =    1.945    core radius for proj-oper                               
   RAUG   =    1.300    factor for augmentation sphere                          
   RDEP   =    2.020    radius for radial grids                                 
   RDEPT  =    1.678    core radius for aug-charge                              
                                                                                
   Atomic configuration                                                         
    6 entries                                                                   
     n  l   j            E        occ.                                          
     1  0  0.50     -2751.1850   2.0000                                         
     2  0  0.50      -252.6861   2.0000                                         
     2  1  1.50      -191.6157   6.0000                                         
     3  0  0.50       -20.6916   2.0000                                         
     3  1  0.50        -8.5949   5.0000                                         
     3  2  1.50        -8.1635   0.0000                                         
   Description                                                                  
     l       E           TYP  RCUT    TYP  RCUT                                 
     0    -20.6915656     23  1.900                                             
     0    -22.0521482     23  1.900                                             
     1     -8.5948577     23  1.900                                             
     1     -5.3847331     23  1.900                                             
     2     -8.1634956     23  1.900                                             
  local pseudopotential read in
  partial core-charges read in
  partial kinetic energy density read in
  atomic valenz-charges read in
  non local Contribution for L=           0  read in
    real space projection operators read in
  non local Contribution for L=           0  read in
    real space projection operators read in
  non local Contribution for L=           1  read in
    real space projection operators read in
  non local Contribution for L=           1  read in
    real space projection operators read in
    PAW grid and wavefunctions read in
 
   number of l-projection  operators is LMAX  =           4
   number of lm-projection operators is LMMAX =           8
 
 POTCAR:    PAW_PBE H 15Jun2001                   
   VRHFIN =H: ultrasoft test                                                    
   LEXCH  = PE                                                                  
   EATOM  =    12.4884 eV,    0.9179 Ry                                         
                                                                                
   TITEL  = PAW_PBE H 15Jun2001                                                 
   LULTRA =        F    use ultrasoft PP ?                                      
   IUNSCR =        0    unscreen: 0-lin 1-nonlin 2-no                           
   RPACOR =    0.000    partial core radius                                     
   POMASS =    1.000; ZVAL   =    1.000    mass and valenz                      
   RCORE  =    1.100    outmost cutoff radius                                   
   RWIGS  =    0.700; RWIGS  =    0.370    wigner-seitz radius (au A)           
   ENMAX  =  250.000; ENMIN  =  200.000 eV                                      
   RCLOC  =    0.701    cutoff for local pot                                    
   LCOR   =        T    correct aug charges                                     
   LPAW   =        T    paw PP                                                  
   EAUG   =  400.000                                                            
   RMAX   =    1.123    core radius for proj-oper                               
   RAUG   =    1.200    factor for augmentation sphere                          
   RDEP   =    1.112    radius for radial grids                                 
   RDEPT  =    0.926    core radius for aug-charge                              
                                                                                
   Atomic configuration                                                         
    2 entries                                                                   
     n  l   j            E        occ.                                          
     1  0  0.50        -6.4927   1.0000                                         
     2  1  0.50        -3.4015   0.0000                                         
   Description                                                                  
     l       E           TYP  RCUT    TYP  RCUT                                 
     0     -6.4927494     23  1.100                                             
     0      6.8029130     23  1.100                                             
     1     -4.0817478     23  1.100                                             
  local pseudopotential read in
  atomic valenz-charges read in
  non local Contribution for L=           0  read in
    real space projection operators read in
  non local Contribution for L=           0  read in
    real space projection operators read in
  non local Contribution for L=           1  read in
    real space projection operators read in
    PAW grid and wavefunctions read in
 
   number of l-projection  operators is LMAX  =           3
   number of lm-projection operators is LMMAX =           5
 

 ----------------------------------------------------------------------------- 
|                                                                             |
|  ADVICE TO THIS USER RUNNING 'VASP/VAMP'   (HEAR YOUR MASTER'S VOICE ...):  |
|                                                                             |
|      You have a (more or less) 'small supercell' and for smaller cells      |
|      it is recommended  to use the reciprocal-space projection scheme!      |
|      The real space optimization is not  efficient for small cells and it   |
|      is also less accurate ...                                              |
|      Therefore set LREAL=.FALSE. in the  INCAR file                         |
|                                                                             |
 ----------------------------------------------------------------------------- 

 Optimization of the real space projectors (new method)

 maximal supplied QI-value         = 25.13
 optimisation between [QCUT,QGAM] = [  8.80, 17.59] = [ 21.67, 86.68] Ry 
 Optimized for a Real-space Cutoff    1.50 Angstroem

   l    n(q)    QCUT    max X(q) W(low)/X(q) W(high)/X(q)  e(spline) 
   0      8     8.797   115.676    0.19E-03    0.26E-04    0.42E-06
   0      8     8.797    87.132    0.19E-03    0.33E-04    0.41E-06
   1      7     8.797     4.429    0.42E-04    0.48E-03    0.42E-06
   1      7     8.797     2.661    0.83E-04    0.56E-03    0.43E-06
 Optimization of the real space projectors (new method)

 maximal supplied QI-value         = 19.84
 optimisation between [QCUT,QGAM] = [  8.73, 17.66] = [ 21.34, 87.33] Ry 
 Optimized for a Real-space Cutoff    1.50 Angstroem

   l    n(q)    QCUT    max X(q) W(low)/X(q) W(high)/X(q)  e(spline) 
   0      8     8.731   168.010    0.15E-03    0.93E-04    0.15E-06
   0      8     8.731   164.674    0.15E-03    0.90E-04    0.14E-06
   1      7     8.731    69.222    0.14E-03    0.42E-03    0.20E-06
   1      7     8.731    56.786    0.14E-03    0.41E-03    0.20E-06
 Optimization of the real space projectors (new method)

 maximal supplied QI-value         = 34.20
 optimisation between [QCUT,QGAM] = [  8.55, 17.44] = [ 20.48, 85.21] Ry 
 Optimized for a Real-space Cutoff    1.74 Angstroem

   l    n(q)    QCUT    max X(q) W(low)/X(q) W(high)/X(q)  e(spline) 
   0      9     8.551    19.232    0.13E-03    0.35E-03    0.91E-06
   0      9     8.551    12.169    0.12E-03    0.33E-03    0.87E-06
   1      9     8.551     4.465    0.19E-03    0.70E-03    0.86E-06
  PAW_PBE C 08Apr2002                   :
 energy of atom  1       EATOM= -147.1560
 kinetic energy error for atom=    0.2561 (will be added to EATOM!!)
  PAW_PBE Cl 06Sep2000                  :
 energy of atom  2       EATOM= -409.7259
 kinetic energy error for atom=    0.0150 (will be added to EATOM!!)
  PAW_PBE H 15Jun2001                   :
 energy of atom  3       EATOM=  -12.4884
 kinetic energy error for atom=    0.0426 (will be added to EATOM!!)
 
 
 POSCAR:  C Cl  H                                
  positions in cartesian coordinates
  No initial velocities read in
 exchange correlation table for  LEXCH =        8
   RHO(1)=    0.500       N(1)  =     2000
   RHO(2)=  100.500       N(2)  =     4000

 VTST: version 3.1, (03/28/14)

 CHAIN: initializing optimizer
 
 OPT: Using VASP Conjugate-Gradient optimizer
 CHAIN: Read ICHAIN            0
 
 POSCAR:  C Cl  H                                
  positions in cartesian coordinates
  No initial velocities read in
 


--------------------------------------------------------------------------------------------------------


 ion  position               nearest neighbor table
   1  0.430  0.477  0.497-   4 1.09   5 1.09   3 1.09   2 1.77
   2  0.606  0.477  0.497-   1 1.77
   3  0.394  0.431  0.589-   1 1.09
   4  0.394  0.420  0.411-   1 1.09
   5  0.394  0.580  0.490-   1 1.09
 
  LATTYP: Found a simple cubic cell.
 ALAT       =    10.0000000000
  
  Lattice vectors:
  
 A1 = (  10.0000000000,   0.0000000000,   0.0000000000)
 A2 = (   0.0000000000,  10.0000000000,   0.0000000000)
 A3 = (   0.0000000000,   0.0000000000,  10.0000000000)


Analysis of symmetry for initial positions (statically):
=====================================================================
 Subroutine PRICEL returns:
 Original cell was already a primitive cell.
 

 Routine SETGRP: Setting up the symmetry group for a 
 simple cubic supercell.


 Subroutine GETGRP returns: Found  1 space group operations
 (whereof  1 operations were pure point group operations)
 out of a pool of 48 trial point group operations.


The static configuration has the point symmetry C_1 .


Analysis of symmetry for dynamics (positions and initial velocities):
=====================================================================
 Subroutine PRICEL returns:
 Original cell was already a primitive cell.
 

 Routine SETGRP: Setting up the symmetry group for a 
 simple cubic supercell.


 Subroutine GETGRP returns: Found  1 space group operations
 (whereof  1 operations were pure point group operations)
 out of a pool of 48 trial point group operations.


The dynamic configuration has the point symmetry C_1 .


Analysis of magnetic symmetry:
=====================================================================
 Subroutine PRICEL returns:
 Original cell was already a primitive cell.
 

 Subroutine MAGSYM returns: Found  1 space group operations
 (whereof  1 operations were pure point group operations)
 out of a pool of  1 trial space group operations
 (whereof  1 operations were pure point group operations)
 and found also     1 'primitive' translations


The magnetic configuration has the point symmetry C_1 .
 
 
 KPOINTS: KPOINTS created by Atomic Simulation Env

Automatic generation of k-mesh.
Space group operators:
 irot       det(A)        alpha          n_x          n_y          n_z        tau_x        tau_y        tau_z
    1     1.000000     0.000000     1.000000     0.000000     0.000000     0.000000     0.000000     0.000000
 
 Subroutine IBZKPT returns following result:
 ===========================================
 
 Found      1 irreducible k-points:
 
 Following reciprocal coordinates:
            Coordinates               Weight
  0.000000  0.000000  0.000000      1.000000
 
 Following cartesian coordinates:
            Coordinates               Weight
  0.000000  0.000000  0.000000      1.000000
 


--------------------------------------------------------------------------------------------------------




 Dimension of arrays:
   k-points           NKPTS =      1   k-points in BZ     NKDIM =      1   number of bands    NBANDS=     12
   number of dos      NEDOS =    301   number of ions     NIONS =      5
   non local maximal  LDIM  =      4   non local SUM 2l+1 LMDIM =      8
   total plane-waves  NPLWV = 175616
   max r-space proj   IRMAX =   3938   max aug-charges    IRDMAX=   5247
   dimension x,y,z NGX =    56 NGY =   56 NGZ =   56
   dimension x,y,z NGXF=   112 NGYF=  112 NGZF=  112
   support grid    NGXF=   112 NGYF=  112 NGZF=  112
   ions per type =               1   1   3
 NGX,Y,Z   is equivalent  to a cutoff of   9.31,  9.31,  9.31 a.u.
 NGXF,Y,Z  is equivalent  to a cutoff of  18.62, 18.62, 18.62 a.u.


 I would recommend the setting:
   dimension x,y,z NGX =    56 NGY =   56 NGZ =   56
 SYSTEM =  unknown system                          
 POSCAR =   C Cl  H                                

 Startparameter for this run:
   NWRITE =      2    write-flag & timer
   PREC   = accura    normal or accurate (medium, high low for compatibility)
   ISTART =      0    job   : 0-new  1-cont  2-samecut
   ICHARG =      2    charge: 1-file 2-atom 10-const
   ISPIN  =      2    spin polarized calculation?
   LNONCOLLINEAR =      F non collinear calculations
   LSORBIT =      F    spin-orbit coupling
   INIWAV =      1    electr: 0-lowe 1-rand  2-diag
   LASPH  =      F    aspherical Exc in radial PAW
   METAGGA=      F    non-selfconsistent MetaGGA calc.

 Electronic Relaxation 1
   ENCUT  =  300.0 eV  22.05 Ry    4.70 a.u.  14.12 14.12 14.12*2*pi/ulx,y,z
   ENINI  =  300.0     initial cutoff
   ENAUG  =  644.9 eV  augmentation charge cutoff
   NELM   =    200;   NELMIN=  2; NELMDL= -5     # of ELM steps 
   EDIFF  = 0.1E-05   stopping-criterion for ELM
   LREAL  =      T    real-space projection
   NLSPLINE    = F    spline interpolate recip. space projectors
   LCOMPAT=      F    compatible to vasp.4.4
   GGA_COMPAT  = T    GGA compatible to vasp.4.4-vasp.4.6
   LMAXPAW     = -100 max onsite density
   LMAXMIX     =    2 max onsite mixed and CHGCAR
   VOSKOWN=      0    Vosko Wilk Nusair interpolation
   ROPT   =   -0.00025  -0.00025  -0.00025
 Ionic relaxation
   EDIFFG = -.2E-01   stopping-criterion for IOM
   NSW    =      0    number of steps for IOM
   NBLOCK =      1;   KBLOCK =      1    inner block; outer block 
   IBRION =     -1    ionic relax: 0-MD 1-quasi-New 2-CG
   NFREE  =      1    steps in history (QN), initial steepest desc. (CG)
   ISIF   =      2    stress and relaxation
   IWAVPR =     10    prediction:  0-non 1-charg 2-wave 3-comb
   ISYM   =      2    0-nonsym 1-usesym 2-fastsym
   LCORR  =      T    Harris-Foulkes like correction to forces

   POTIM  = 0.2000    time-step for ionic-motion
   TEIN   =    0.0    initial temperature
   TEBEG  =    0.0;   TEEND  =   0.0 temperature during run
   SMASS  =  -3.00    Nose mass-parameter (am)
   estimated Nose-frequenzy (Omega)   =  0.10E-29 period in steps =****** mass=  -0.229E-26a.u.
   SCALEE = 1.0000    scale energy and forces
   NPACO  =    256;   APACO  = 16.0  distance and # of slots for P.C.
   PSTRESS=    0.0 pullay stress

  Mass of Ions in am
   POMASS =  12.01 35.45  1.00
  Ionic Valenz
   ZVAL   =   4.00  7.00  1.00
  Atomic Wigner-Seitz radii
   RWIGS  =  -1.00 -1.00 -1.00
  virtual crystal weights 
   VCA    =   1.00  1.00  1.00
   NELECT =      14.0000    total number of electrons
   NUPDOWN=       0.0000    fix difference up-down

 DOS related values:
   EMIN   =  10.00;   EMAX   =-10.00  energy-range for DOS
   EFERMI =   0.00
   ISMEAR =     2;   SIGMA  =   0.10  broadening in eV -4-tet -1-fermi 0-gaus

 Electronic relaxation 2 (details)
   IALGO  =     68    algorithm
   LDIAG  =      T    sub-space diagonalisation (order eigenvalues)
   LSUBROT=      F    optimize rotation matrix (better conditioning)
   TURBO    =      0    0=normal 1=particle mesh
   IRESTART =      0    0=no restart 2=restart with 2 vectors
   NREBOOT  =      0    no. of reboots
   NMIN     =      0    reboot dimension
   EREF     =   0.00    reference energy to select bands
   IMIX   =      4    mixing-type and parameters
     AMIX     =   0.40;   BMIX     =  1.00
     AMIX_MAG =   1.60;   BMIX_MAG =  1.00
     AMIN     =   0.10
     WC   =   100.;   INIMIX=   1;  MIXPRE=   1;  MAXMIX= -45

 Intra band minimization:
   WEIMIN = 0.0000     energy-eigenvalue tresh-hold
   EBREAK =  0.21E-07  absolut break condition
   DEPER  =   0.30     relativ break condition  

   TIME   =   0.40     timestep for ELM

  volume/ion in A,a.u.               =     200.00      1349.67
  Fermi-wavevector in a.u.,A,eV,Ry     =   0.394564  0.745618  2.118166  0.155681
  Thomas-Fermi vector in A             =   1.339407
 
 Write flags
   LWAVE  =      F    write WAVECAR
   LCHARG =      T    write CHGCAR
   LVTOT  =      F    write LOCPOT, total local potential
   LVHAR  =      F    write LOCPOT, Hartree potential only
   LELF   =      F    write electronic localiz. function (ELF)
   LORBIT =     11    0 simple, 1 ext, 2 COOP (PROOUT)


 Dipole corrections
   LMONO  =      F    monopole corrections only (constant potential shift)
   LDIPOL =      F    correct potential (dipole corrections)
   IDIPOL =      3    1-x, 2-y, 3-z, 4-all directions 
   EPSILON=  1.0000000 bulk dielectric constant

 Exchange correlation treatment:
   GGA     =    --    GGA type
   LEXCH   =     8    internal setting for exchange type
   VOSKOWN=      0    Vosko Wilk Nusair interpolation
   LHFCALC =     F    Hartree Fock is set to
   LHFONE  =     F    Hartree Fock one center treatment
   AEXX    =    0.0000 exact exchange contribution

 Linear response parameters
   LEPSILON=     F    determine dielectric tensor
   LRPA    =     F    only Hartree local field effects (RPA)
   LNABLA  =     F    use nabla operator in PAW spheres
   LVEL    =     F    velocity operator in full k-point grid
   LINTERFAST=   F  fast interpolation
   KINTER  =     0    interpolate to denser k-point grid
   CSHIFT  =0.1000    complex shift for real part using Kramers Kronig
   OMEGAMAX=  -1.0    maximum frequency
   DEG_THRESHOLD= 0.2000000E-02 threshold for treating states as degnerate
   RTIME   =    0.100 relaxation time in fs

 Orbital magnetization related:
   ORBITALMAG=     F  switch on orbital magnetization
   LCHIMAG   =     F  perturbation theory with respect to B field
   DQ        =  0.001000  dq finite difference perturbation B field



--------------------------------------------------------------------------------------------------------


 Static calculation
 charge density and potential will be updated during run
 spin polarized calculation
 RMM-DIIS sequential band-by-band and
  variant of blocked Davidson during initial phase
 perform sub-space diagonalisation
    before iterative eigenvector-optimisation
 modified Broyden-mixing scheme, WC =      100.0
 initial mixing is a Kerker type mixing with AMIX =  0.4000 and BMIX =      1.0000
 Hartree-type preconditioning will be used
 using additional bands            5
 real space projection scheme for non local part
 use partial core corrections
 calculate Harris-corrections to forces 
   (improved forces if not selfconsistent)
 use gradient corrections 
 use of overlap-Matrix (Vanderbilt PP)
 Methfessel and Paxton  Order N= 2 SIGMA  =   0.10


--------------------------------------------------------------------------------------------------------


  energy-cutoff  :      300.00
  volume of cell :     1000.00
      direct lattice vectors                 reciprocal lattice vectors
    10.000000000  0.000000000  0.000000000     0.100000000  0.000000000  0.000000000
     0.000000000 10.000000000  0.000000000     0.000000000  0.100000000  0.000000000
     0.000000000  0.000000000 10.000000000     0.000000000  0.000000000  0.100000000

  length of vectors
    10.000000000 10.000000000 10.000000000     0.100000000  0.100000000  0.100000000


 
 k-points in units of 2pi/SCALE and weight: KPOINTS created by Atomic Simulation Env
   0.00000000  0.00000000  0.00000000       1.000
 
 k-points in reciprocal lattice and weights: KPOINTS created by Atomic Simulation Env
   0.00000000  0.00000000  0.00000000       1.000
 
 position of ions in fractional coordinates (direct lattice) 
   0.42950300  0.47713450  0.49666800
   0.60620000  0.47713450  0.49666800
   0.39380000  0.43140350  0.58920400
   0.39380000  0.41986150  0.41079600
   0.39380000  0.58013850  0.49000400
 
 position of ions in cartesian coordinates  (Angst):
   4.29503000  4.77134500  4.96668000
   6.06200000  4.77134500  4.96668000
   3.93800000  4.31403500  5.89204000
   3.93800000  4.19861500  4.10796000
   3.93800000  5.80138500  4.90004000
 


--------------------------------------------------------------------------------------------------------


 k-point  1 :   0.0000 0.0000 0.0000  plane waves:   11753

 maximum and minimum number of plane-waves per node :     11753    11753

 maximum number of plane-waves:     11753
 maximum index in each direction: 
   IXMAX=   14   IYMAX=   14   IZMAX=   14
   IXMIN=  -14   IYMIN=  -14   IZMIN=  -14

 WARNING: aliasing errors must be expected set NGX to  58 to avoid them
 WARNING: aliasing errors must be expected set NGY to  58 to avoid them
 WARNING: aliasing errors must be expected set NGZ to  58 to avoid them
 aliasing errors are usually negligible using standard VASP settings
 and one can safely disregard these warnings

 serial   3D FFT for wavefunctions
 parallel 3D FFT for charge:
    minimum data exchange during FFTs selected (reduces bandwidth)


 total amount of memory used by VASP on root node    61864. kBytes
========================================================================

   base      :      30000. kBytes
   nonlr-proj:       1173. kBytes
   fftplans  :       4935. kBytes
   grid      :      25349. kBytes
   one-center:         30. kBytes
   wavefun   :        377. kBytes
 
     INWAV:  cpu time    0.0010: real time    0.0001
 Broyden mixing: mesh for mixing (old mesh)
   NGX = 29   NGY = 29   NGZ = 29
  (NGX  =112   NGY  =112   NGZ  =112)
  gives a total of  24389 points

 initial charge density was supplied:
 charge density of overlapping atoms calculated
 number of electron      14.0000000 magnetization       0.0000000
 keeping initial charge density in first step


--------------------------------------------------------------------------------------------------------


 Maximum index for non-local projection operator         3801
 Maximum index for augmentation-charges          450 (set IRDMAX)


--------------------------------------------------------------------------------------------------------


 First call to EWALD:  gamma=   0.177
 Maximum number of real-space cells 3x 3x 3
 Maximum number of reciprocal cells 3x 3x 3

 FEWALD executed in parallel
    FEWALD:  cpu time    0.0030: real time    0.0026


----------------------------------------- Iteration    1(   1)  ---------------------------------------


    POTLOK:  cpu time    0.3070: real time    0.3079
    SETDIJ:  cpu time    0.0070: real time    0.0064
     EDDAV:  cpu time    0.2020: real time    0.2023
       DOS:  cpu time    0.0000: real time    0.0004
    --------------------------------------------
      LOOP:  cpu time    0.5179: real time    0.5211

 eigenvalue-minimisations  :    60
 total energy-change (2. order) : 0.9004678E+02  (-0.3205564E+03)
 number of electron      14.0000000 magnetization       0.0000000
 augmentation part       14.0000000 magnetization       0.0000000

 Free energy of the ion-electron system (eV)
  ---------------------------------------------------
  alpha Z        PSCENC =         0.81223224
  Ewald energy   TEWEN  =       145.29194979
  -Hartree energ DENC   =      -601.48865606
  -exchange      EXHF   =         0.00000000
  -V(xc)+E(xc)   XCENC  =        39.82255589
  PAW double counting   =       440.19968802     -440.90946169
  entropy T*S    EENTRO =         0.00379227
  eigenvalues    EBANDS =       -87.63349849
  atomic energy  EATOM  =       593.94817731
  Solvation  Ediel_sol  =         0.00000000
  ---------------------------------------------------
  free energy    TOTEN  =        90.04677927 eV

  energy without entropy =       90.04298700  energy(sigma->0) =       90.04583120


--------------------------------------------------------------------------------------------------------




----------------------------------------- Iteration    1(   2)  ---------------------------------------


     EDDAV:  cpu time    0.2000: real time    0.2003
       DOS:  cpu time    0.0000: real time    0.0003
    --------------------------------------------
      LOOP:  cpu time    0.2010: real time    0.2026

 eigenvalue-minimisations  :    60
 total energy-change (2. order) :-0.8188182E+02  (-0.8186566E+02)
 number of electron      14.0000000 magnetization       0.0000000
 augmentation part       14.0000000 magnetization       0.0000000

 Free energy of the ion-electron system (eV)
  ---------------------------------------------------
  alpha Z        PSCENC =         0.81223224
  Ewald energy   TEWEN  =       145.29194979
  -Hartree energ DENC   =      -601.48865606
  -exchange      EXHF   =         0.00000000
  -V(xc)+E(xc)   XCENC  =        39.82255589
  PAW double counting   =       440.19968802     -440.90946169
  entropy T*S    EENTRO =         0.00550610
  eigenvalues    EBANDS =      -169.51703566
  atomic energy  EATOM  =       593.94817731
  Solvation  Ediel_sol  =         0.00000000
  ---------------------------------------------------
  free energy    TOTEN  =         8.16495594 eV

  energy without entropy =        8.15944983  energy(sigma->0) =        8.16357941


--------------------------------------------------------------------------------------------------------




----------------------------------------- Iteration    1(   3)  ---------------------------------------


     EDDAV:  cpu time    0.2000: real time    0.2003
       DOS:  cpu time    0.0000: real time    0.0003
    --------------------------------------------
      LOOP:  cpu time    0.2010: real time    0.2026

 eigenvalue-minimisations  :    60
 total energy-change (2. order) :-0.3141193E+02  (-0.3141339E+02)
 number of electron      14.0000000 magnetization       0.0000000
 augmentation part       14.0000000 magnetization       0.0000000

 Free energy of the ion-electron system (eV)
  ---------------------------------------------------
  alpha Z        PSCENC =         0.81223224
  Ewald energy   TEWEN  =       145.29194979
  -Hartree energ DENC   =      -601.48865606
  -exchange      EXHF   =         0.00000000
  -V(xc)+E(xc)   XCENC  =        39.82255589
  PAW double counting   =       440.19968802     -440.90946169
  entropy T*S    EENTRO =         0.00908417
  eigenvalues    EBANDS =      -200.93254590
  atomic energy  EATOM  =       593.94817731
  Solvation  Ediel_sol  =         0.00000000
  ---------------------------------------------------
  free energy    TOTEN  =       -23.24697624 eV

  energy without entropy =      -23.25606041  energy(sigma->0) =      -23.24924728


--------------------------------------------------------------------------------------------------------




----------------------------------------- Iteration    1(   4)  ---------------------------------------


     EDDAV:  cpu time    0.2970: real time    0.2967
       DOS:  cpu time    0.0000: real time    0.0003
    --------------------------------------------
      LOOP:  cpu time    0.2970: real time    0.2991

 eigenvalue-minimisations  :    96
 total energy-change (2. order) :-0.1147966E+01  (-0.1149901E+01)
 number of electron      14.0000000 magnetization       0.0000000
 augmentation part       14.0000000 magnetization       0.0000000

 Free energy of the ion-electron system (eV)
  ---------------------------------------------------
  alpha Z        PSCENC =         0.81223224
  Ewald energy   TEWEN  =       145.29194979
  -Hartree energ DENC   =      -601.48865606
  -exchange      EXHF   =         0.00000000
  -V(xc)+E(xc)   XCENC  =        39.82255589
  PAW double counting   =       440.19968802     -440.90946169
  entropy T*S    EENTRO =         0.01101252
  eigenvalues    EBANDS =      -202.08244052
  atomic energy  EATOM  =       593.94817731
  Solvation  Ediel_sol  =         0.00000000
  ---------------------------------------------------
  free energy    TOTEN  =       -24.39494251 eV

  energy without entropy =      -24.40595503  energy(sigma->0) =      -24.39769564


--------------------------------------------------------------------------------------------------------




----------------------------------------- Iteration    1(   5)  ---------------------------------------


     EDDAV:  cpu time    0.2000: real time    0.1999
       DOS:  cpu time    0.0000: real time    0.0003
    CHARGE:  cpu time    0.0580: real time    0.0580
    MIXING:  cpu time    0.0090: real time    0.0089
    --------------------------------------------
      LOOP:  cpu time    0.2670: real time    0.2690

 eigenvalue-minimisations  :    60
 total energy-change (2. order) :-0.9237842E-03  (-0.9236193E-03)
 number of electron      13.9999990 magnetization      -0.0000000
 augmentation part       -0.7857056 magnetization      -0.0000035

 Broyden mixing:
  rms(total) = 0.12185E+01    rms(broyden)= 0.12181E+01
  rms(prec ) = 0.14092E+01
  weight for this iteration     100.00

 Free energy of the ion-electron system (eV)
  ---------------------------------------------------
  alpha Z        PSCENC =         0.81223224
  Ewald energy   TEWEN  =       145.29194979
  -Hartree energ DENC   =      -601.48865606
  -exchange      EXHF   =         0.00000000
  -V(xc)+E(xc)   XCENC  =        39.82255589
  PAW double counting   =       440.19968802     -440.90946169
  entropy T*S    EENTRO =         0.01101225
  eigenvalues    EBANDS =      -202.08336403
  atomic energy  EATOM  =       593.94817731
  Solvation  Ediel_sol  =         0.00000000
  ---------------------------------------------------
  free energy    TOTEN  =       -24.39586629 eV

  energy without entropy =      -24.40687854  energy(sigma->0) =      -24.39861935


--------------------------------------------------------------------------------------------------------




----------------------------------------- Iteration    1(   6)  ---------------------------------------


    POTLOK:  cpu time    0.3070: real time    0.3080
    SETDIJ:  cpu time    0.0070: real time    0.0067
    EDDIAG:  cpu time    0.0420: real time    0.0415
  RMM-DIIS:  cpu time    0.2940: real time    0.2951
    ORTHCH:  cpu time    0.0020: real time    0.0020
       DOS:  cpu time    0.0010: real time    0.0003
    CHARGE:  cpu time    0.0580: real time    0.0583
    MIXING:  cpu time    0.0090: real time    0.0091
    --------------------------------------------
      LOOP:  cpu time    0.7209: real time    0.7236

 eigenvalue-minimisations  :    64
 total energy-change (2. order) : 0.1680705E+01  (-0.2634027E+00)
 number of electron      13.9999989 magnetization       0.0000000
 augmentation part       -0.8059193 magnetization       0.0000035

 Broyden mixing:
  rms(total) = 0.57346E+00    rms(broyden)= 0.57333E+00
  rms(prec ) = 0.64855E+00
  weight for this iteration     100.00

 eigenvalues of (default mixing * dielectric matrix)
  average eigenvalue GAMMA=   1.6246
  1.6246

 Free energy of the ion-electron system (eV)
  ---------------------------------------------------
  alpha Z        PSCENC =         0.81223224
  Ewald energy   TEWEN  =       145.29194979
  -Hartree energ DENC   =      -617.62379434
  -exchange      EXHF   =         0.00000000
  -V(xc)+E(xc)   XCENC  =        40.75684773
  PAW double counting   =       639.16374531     -640.01226432
  entropy T*S    EENTRO =         0.01101222
  eigenvalues    EBANDS =      -185.06306742
  atomic energy  EATOM  =       593.94817731
  Solvation  Ediel_sol  =         0.00000000
  ---------------------------------------------------
  free energy    TOTEN  =       -22.71516149 eV

  energy without entropy =      -22.72617371  energy(sigma->0) =      -22.71791454


--------------------------------------------------------------------------------------------------------




----------------------------------------- Iteration    1(   7)  ---------------------------------------


    POTLOK:  cpu time    0.3080: real time    0.3081
    SETDIJ:  cpu time    0.0070: real time    0.0067
    EDDIAG:  cpu time    0.0390: real time    0.0390
  RMM-DIIS:  cpu time    0.3359: real time    0.3361
    ORTHCH:  cpu time    0.0020: real time    0.0020
       DOS:  cpu time    0.0000: real time    0.0003
    CHARGE:  cpu time    0.0580: real time    0.0585
    MIXING:  cpu time    0.0100: real time    0.0092
    --------------------------------------------
      LOOP:  cpu time    0.7609: real time    0.7625

 eigenvalue-minimisations  :    68
 total energy-change (2. order) : 0.3557343E+00  (-0.7473284E-01)
 number of electron      13.9999989 magnetization       0.0000000
 augmentation part       -0.8066914 magnetization      -0.0000037

 Broyden mixing:
  rms(total) = 0.21771E+00    rms(broyden)= 0.21765E+00
  rms(prec ) = 0.24803E+00
  weight for this iteration     100.00

 eigenvalues of (default mixing * dielectric matrix)
  average eigenvalue GAMMA=   1.8233
  1.1896  2.4569

 Free energy of the ion-electron system (eV)
  ---------------------------------------------------
  alpha Z        PSCENC =         0.81223224
  Ewald energy   TEWEN  =       145.29194979
  -Hartree energ DENC   =      -629.81595975
  -exchange      EXHF   =         0.00000000
  -V(xc)+E(xc)   XCENC  =        41.62191394
  PAW double counting   =       851.15298903     -852.11575737
  entropy T*S    EENTRO =         0.01101271
  eigenvalues    EBANDS =      -173.26598511
  atomic energy  EATOM  =       593.94817731
  Solvation  Ediel_sol  =         0.00000000
  ---------------------------------------------------
  free energy    TOTEN  =       -22.35942721 eV

  energy without entropy =      -22.37043992  energy(sigma->0) =      -22.36218039


--------------------------------------------------------------------------------------------------------




----------------------------------------- Iteration    1(   8)  ---------------------------------------


    POTLOK:  cpu time    0.3070: real time    0.3072
    SETDIJ:  cpu time    0.0070: real time    0.0068
    EDDIAG:  cpu time    0.0390: real time    0.0392
  RMM-DIIS:  cpu time    0.3369: real time    0.3367
    ORTHCH:  cpu time    0.0020: real time    0.0019
       DOS:  cpu time    0.0000: real time    0.0003
    CHARGE:  cpu time    0.0590: real time    0.0584
    MIXING:  cpu time    0.0090: real time    0.0093
    --------------------------------------------
      LOOP:  cpu time    0.7599: real time    0.7622

 eigenvalue-minimisations  :    68
 total energy-change (2. order) : 0.6636694E-01  (-0.1520483E-01)
 number of electron      13.9999990 magnetization       0.0000000
 augmentation part       -0.8028285 magnetization       0.0000080

 Broyden mixing:
  rms(total) = 0.52561E-01    rms(broyden)= 0.52538E-01
  rms(prec ) = 0.69598E-01
  weight for this iteration     100.00

 eigenvalues of (default mixing * dielectric matrix)
  average eigenvalue GAMMA=   1.8115
  1.2611  2.3629  1.8105

 Free energy of the ion-electron system (eV)
  ---------------------------------------------------
  alpha Z        PSCENC =         0.81223224
  Ewald energy   TEWEN  =       145.29194979
  -Hartree energ DENC   =      -635.60005157
  -exchange      EXHF   =         0.00000000
  -V(xc)+E(xc)   XCENC  =        42.09835968
  PAW double counting   =       991.82012805     -992.81720408
  entropy T*S    EENTRO =         0.01102165
  eigenvalues    EBANDS =      -167.85767333
  atomic energy  EATOM  =       593.94817731
  Solvation  Ediel_sol  =         0.00000000
  ---------------------------------------------------
  free energy    TOTEN  =       -22.29306027 eV

  energy without entropy =      -22.30408192  energy(sigma->0) =      -22.29581568


--------------------------------------------------------------------------------------------------------




----------------------------------------- Iteration    1(   9)  ---------------------------------------


    POTLOK:  cpu time    0.3060: real time    0.3077
    SETDIJ:  cpu time    0.0080: real time    0.0067
    EDDIAG:  cpu time    0.0390: real time    0.0391
  RMM-DIIS:  cpu time    0.2950: real time    0.2953
    ORTHCH:  cpu time    0.0020: real time    0.0020
       DOS:  cpu time    0.0010: real time    0.0003
    CHARGE:  cpu time    0.0570: real time    0.0584
    MIXING:  cpu time    0.0110: real time    0.0094
    --------------------------------------------
      LOOP:  cpu time    0.7199: real time    0.7221

 eigenvalue-minimisations  :    64
 total energy-change (2. order) : 0.3998571E-02  (-0.9043253E-03)
 number of electron      13.9999990 magnetization       0.0000000
 augmentation part       -0.8040453 magnetization      -0.0000068

 Broyden mixing:
  rms(total) = 0.22859E-01    rms(broyden)= 0.22853E-01
  rms(prec ) = 0.36854E-01
  weight for this iteration     100.00

 eigenvalues of (default mixing * dielectric matrix)
  average eigenvalue GAMMA=   1.4083
  2.3512  1.8274  1.2634  0.1912

 Free energy of the ion-electron system (eV)
  ---------------------------------------------------
  alpha Z        PSCENC =         0.81223224
  Ewald energy   TEWEN  =       145.29194979
  -Hartree energ DENC   =      -636.27821557
  -exchange      EXHF   =         0.00000000
  -V(xc)+E(xc)   XCENC  =        42.10890907
  PAW double counting   =      1000.18818491    -1001.15615981
  entropy T*S    EENTRO =         0.01143180
  eigenvalues    EBANDS =      -167.21557143
  atomic energy  EATOM  =       593.94817731
  Solvation  Ediel_sol  =         0.00000000
  ---------------------------------------------------
  free energy    TOTEN  =       -22.28906170 eV

  energy without entropy =      -22.30049350  energy(sigma->0) =      -22.29191965


--------------------------------------------------------------------------------------------------------




----------------------------------------- Iteration    1(  10)  ---------------------------------------


    POTLOK:  cpu time    0.3070: real time    0.3078
    SETDIJ:  cpu time    0.0080: real time    0.0067
    EDDIAG:  cpu time    0.0390: real time    0.0392
  RMM-DIIS:  cpu time    0.3229: real time    0.3249
    ORTHCH:  cpu time    0.0030: real time    0.0020
       DOS:  cpu time    0.0000: real time    0.0003
    CHARGE:  cpu time    0.0580: real time    0.0584
    MIXING:  cpu time    0.0100: real time    0.0097
    --------------------------------------------
      LOOP:  cpu time    0.7479: real time    0.7518

 eigenvalue-minimisations  :    67
 total energy-change (2. order) :-0.2809755E-02  (-0.2595331E-03)
 number of electron      13.9999990 magnetization       0.0000000
 augmentation part       -0.8042406 magnetization      -0.0000002

 Broyden mixing:
  rms(total) = 0.21099E-01    rms(broyden)= 0.21095E-01
  rms(prec ) = 0.32237E-01
  weight for this iteration     100.00

 eigenvalues of (default mixing * dielectric matrix)
  average eigenvalue GAMMA=   1.2801
  2.3479  1.8524  1.2608  0.4332  0.5060

 Free energy of the ion-electron system (eV)
  ---------------------------------------------------
  alpha Z        PSCENC =         0.81223224
  Ewald energy   TEWEN  =       145.29194979
  -Hartree energ DENC   =      -636.57288625
  -exchange      EXHF   =         0.00000000
  -V(xc)+E(xc)   XCENC  =        42.11378061
  PAW double counting   =       998.01532543     -998.97959539
  entropy T*S    EENTRO =         0.01212515
  eigenvalues    EBANDS =      -166.93298034
  atomic energy  EATOM  =       593.94817731
  Solvation  Ediel_sol  =         0.00000000
  ---------------------------------------------------
  free energy    TOTEN  =       -22.29187146 eV

  energy without entropy =      -22.30399661  energy(sigma->0) =      -22.29490274


--------------------------------------------------------------------------------------------------------




----------------------------------------- Iteration    1(  11)  ---------------------------------------


    POTLOK:  cpu time    0.3070: real time    0.3077
    SETDIJ:  cpu time    0.0070: real time    0.0067
    EDDIAG:  cpu time    0.0390: real time    0.0391
  RMM-DIIS:  cpu time    0.3060: real time    0.3067
    ORTHCH:  cpu time    0.0030: real time    0.0018
       DOS:  cpu time    0.0000: real time    0.0003
    CHARGE:  cpu time    0.0590: real time    0.0590
    MIXING:  cpu time    0.0090: real time    0.0099
    --------------------------------------------
      LOOP:  cpu time    0.7309: real time    0.7337

 eigenvalue-minimisations  :    64
 total energy-change (2. order) : 0.2384486E-02  (-0.5423982E-03)
 number of electron      13.9999990 magnetization       0.0000000
 augmentation part       -0.8042392 magnetization       0.0000012

 Broyden mixing:
  rms(total) = 0.52604E-01    rms(broyden)= 0.52602E-01
  rms(prec ) = 0.56243E-01
  weight for this iteration     100.00

 eigenvalues of (default mixing * dielectric matrix)
  average eigenvalue GAMMA=   1.3314
  2.2242  2.2242  1.5587  1.1838  0.4573  0.3404

 Free energy of the ion-electron system (eV)
  ---------------------------------------------------
  alpha Z        PSCENC =         0.81223224
  Ewald energy   TEWEN  =       145.29194979
  -Hartree energ DENC   =      -636.96817360
  -exchange      EXHF   =         0.00000000
  -V(xc)+E(xc)   XCENC  =        42.12450365
  PAW double counting   =       995.48348566     -996.44564459
  entropy T*S    EENTRO =         0.00386879
  eigenvalues    EBANDS =      -166.53988621
  atomic energy  EATOM  =       593.94817731
  Solvation  Ediel_sol  =         0.00000000
  ---------------------------------------------------
  free energy    TOTEN  =       -22.28948697 eV

  energy without entropy =      -22.29335576  energy(sigma->0) =      -22.29045417


--------------------------------------------------------------------------------------------------------




----------------------------------------- Iteration    1(  12)  ---------------------------------------


    POTLOK:  cpu time    0.3040: real time    0.3051
    SETDIJ:  cpu time    0.0070: real time    0.0067
    EDDIAG:  cpu time    0.0390: real time    0.0390
  RMM-DIIS:  cpu time    0.2400: real time    0.2397
    ORTHCH:  cpu time    0.0020: real time    0.0020
       DOS:  cpu time    0.0000: real time    0.0003
    CHARGE:  cpu time    0.0580: real time    0.0585
    MIXING:  cpu time    0.0110: real time    0.0101
    --------------------------------------------
      LOOP:  cpu time    0.6629: real time    0.6641

 eigenvalue-minimisations  :    57
 total energy-change (2. order) :-0.1850121E-02  (-0.8314643E-04)
 number of electron      13.9999990 magnetization       0.0000000
 augmentation part       -0.8042736 magnetization       0.0000046

 Broyden mixing:
  rms(total) = 0.50496E-01    rms(broyden)= 0.50495E-01
  rms(prec ) = 0.52486E-01
  weight for this iteration     100.00

 eigenvalues of (default mixing * dielectric matrix)
  average eigenvalue GAMMA=   1.3790
  2.4101  2.4101  1.8427  1.2368  0.8285  0.4625  0.4625

 Free energy of the ion-electron system (eV)
  ---------------------------------------------------
  alpha Z        PSCENC =         0.81223224
  Ewald energy   TEWEN  =       145.29194979
  -Hartree energ DENC   =      -637.48974620
  -exchange      EXHF   =         0.00000000
  -V(xc)+E(xc)   XCENC  =        42.13594960
  PAW double counting   =       992.50830286     -993.46647112
  entropy T*S    EENTRO =         0.00388632
  eigenvalues    EBANDS =      -166.03561788
  atomic energy  EATOM  =       593.94817731
  Solvation  Ediel_sol  =         0.00000000
  ---------------------------------------------------
  free energy    TOTEN  =       -22.29133709 eV

  energy without entropy =      -22.29522341  energy(sigma->0) =      -22.29230867


--------------------------------------------------------------------------------------------------------




----------------------------------------- Iteration    1(  13)  ---------------------------------------


    POTLOK:  cpu time    0.3050: real time    0.3050
    SETDIJ:  cpu time    0.0070: real time    0.0067
    EDDIAG:  cpu time    0.0390: real time    0.0390
  RMM-DIIS:  cpu time    0.2340: real time    0.2342
    ORTHCH:  cpu time    0.0020: real time    0.0021
       DOS:  cpu time    0.0010: real time    0.0003
    CHARGE:  cpu time    0.0580: real time    0.0583
    MIXING:  cpu time    0.0100: real time    0.0104
    --------------------------------------------
      LOOP:  cpu time    0.6559: real time    0.6588

 eigenvalue-minimisations  :    54
 total energy-change (2. order) :-0.5999783E-02  (-0.5884330E-03)
 number of electron      13.9999990 magnetization       0.0000000
 augmentation part       -0.8041122 magnetization      -0.0000031

 Broyden mixing:
  rms(total) = 0.26659E-01    rms(broyden)= 0.26651E-01
  rms(prec ) = 0.27898E-01
  weight for this iteration     100.00

 eigenvalues of (default mixing * dielectric matrix)
  average eigenvalue GAMMA=   1.4767
  3.4451  2.1618  2.1618  1.3227  1.1380  0.7172  0.4334  0.4334

 Free energy of the ion-electron system (eV)
  ---------------------------------------------------
  alpha Z        PSCENC =         0.81223224
  Ewald energy   TEWEN  =       145.29194979
  -Hartree energ DENC   =      -638.23634516
  -exchange      EXHF   =         0.00000000
  -V(xc)+E(xc)   XCENC  =        42.15677620
  PAW double counting   =       991.69138873     -992.64695803
  entropy T*S    EENTRO =         0.01258112
  eigenvalues    EBANDS =      -165.32713907
  atomic energy  EATOM  =       593.94817731
  Solvation  Ediel_sol  =         0.00000000
  ---------------------------------------------------
  free energy    TOTEN  =       -22.29733687 eV

  energy without entropy =      -22.30991800  energy(sigma->0) =      -22.30048215


--------------------------------------------------------------------------------------------------------




----------------------------------------- Iteration    1(  14)  ---------------------------------------


    POTLOK:  cpu time    0.3050: real time    0.3050
    SETDIJ:  cpu time    0.0070: real time    0.0067
    EDDIAG:  cpu time    0.0390: real time    0.0390
  RMM-DIIS:  cpu time    0.2510: real time    0.2518
    ORTHCH:  cpu time    0.0020: real time    0.0021
       DOS:  cpu time    0.0010: real time    0.0003
    CHARGE:  cpu time    0.0590: real time    0.0595
    MIXING:  cpu time    0.0110: real time    0.0107
    --------------------------------------------
      LOOP:  cpu time    0.6759: real time    0.6777

 eigenvalue-minimisations  :    57
 total energy-change (2. order) :-0.3373693E-02  (-0.6280989E-04)
 number of electron      13.9999990 magnetization       0.0000000
 augmentation part       -0.8041154 magnetization       0.0000003

 Broyden mixing:
  rms(total) = 0.19324E-01    rms(broyden)= 0.19324E-01
  rms(prec ) = 0.20061E-01
  weight for this iteration     100.00

 eigenvalues of (default mixing * dielectric matrix)
  average eigenvalue GAMMA=   1.4886
  3.9476  2.2146  2.2146  1.4263  1.2341  0.7262  0.7262  0.4537  0.4537

 Free energy of the ion-electron system (eV)
  ---------------------------------------------------
  alpha Z        PSCENC =         0.81223224
  Ewald energy   TEWEN  =       145.29194979
  -Hartree energ DENC   =      -638.44488336
  -exchange      EXHF   =         0.00000000
  -V(xc)+E(xc)   XCENC  =        42.15944172
  PAW double counting   =       991.06643783     -992.02110458
  entropy T*S    EENTRO =         0.01208293
  eigenvalues    EBANDS =      -165.12504444
  atomic energy  EATOM  =       593.94817731
  Solvation  Ediel_sol  =         0.00000000
  ---------------------------------------------------
  free energy    TOTEN  =       -22.30071057 eV

  energy without entropy =      -22.31279349  energy(sigma->0) =      -22.30373130


--------------------------------------------------------------------------------------------------------




----------------------------------------- Iteration    1(  15)  ---------------------------------------


    POTLOK:  cpu time    0.3030: real time    0.3048
    SETDIJ:  cpu time    0.0070: real time    0.0067
    EDDIAG:  cpu time    0.0390: real time    0.0389
  RMM-DIIS:  cpu time    0.2400: real time    0.2400
    ORTHCH:  cpu time    0.0020: real time    0.0021
       DOS:  cpu time    0.0000: real time    0.0003
    CHARGE:  cpu time    0.0580: real time    0.0585
    MIXING:  cpu time    0.0120: real time    0.0111
    --------------------------------------------
      LOOP:  cpu time    0.6629: real time    0.6651

 eigenvalue-minimisations  :    56
 total energy-change (2. order) :-0.1896124E-02  (-0.1503381E-03)
 number of electron      13.9999990 magnetization       0.0000000
 augmentation part       -0.8042379 magnetization       0.0000012

 Broyden mixing:
  rms(total) = 0.29001E-01    rms(broyden)= 0.28998E-01
  rms(prec ) = 0.29213E-01
  weight for this iteration     100.00

 eigenvalues of (default mixing * dielectric matrix)
  average eigenvalue GAMMA=   1.5317
  4.5431  2.2860  2.2860  1.7706  1.2450  0.4538  0.4538  0.7946  0.7946  0.6898

 Free energy of the ion-electron system (eV)
  ---------------------------------------------------
  alpha Z        PSCENC =         0.81223224
  Ewald energy   TEWEN  =       145.29194979
  -Hartree energ DENC   =      -638.52426008
  -exchange      EXHF   =         0.00000000
  -V(xc)+E(xc)   XCENC  =        42.15689507
  PAW double counting   =       990.51000504     -991.46393706
  entropy T*S    EENTRO =         0.00636144
  eigenvalues    EBANDS =      -165.04003044
  atomic energy  EATOM  =       593.94817731
  Solvation  Ediel_sol  =         0.00000000
  ---------------------------------------------------
  free energy    TOTEN  =       -22.30260669 eV

  energy without entropy =      -22.30896813  energy(sigma->0) =      -22.30419705


--------------------------------------------------------------------------------------------------------




----------------------------------------- Iteration    1(  16)  ---------------------------------------


    POTLOK:  cpu time    0.3050: real time    0.3055
    SETDIJ:  cpu time    0.0070: real time    0.0064
    EDDIAG:  cpu time    0.0390: real time    0.0391
  RMM-DIIS:  cpu time    0.2870: real time    0.2883
    ORTHCH:  cpu time    0.0020: real time    0.0019
       DOS:  cpu time    0.0010: real time    0.0003
    CHARGE:  cpu time    0.0570: real time    0.0576
    MIXING:  cpu time    0.0120: real time    0.0112
    --------------------------------------------
      LOOP:  cpu time    0.7109: real time    0.7130

 eigenvalue-minimisations  :    62
 total energy-change (2. order) :-0.2107212E-02  (-0.6752673E-04)
 number of electron      13.9999990 magnetization       0.0000000
 augmentation part       -0.8042684 magnetization       0.0000015

 Broyden mixing:
  rms(total) = 0.89019E-02    rms(broyden)= 0.88974E-02
  rms(prec ) = 0.95867E-02
  weight for this iteration     100.00

 eigenvalues of (default mixing * dielectric matrix)
  average eigenvalue GAMMA=   1.4150
  4.5535  2.2904  2.2904  1.8063  1.2475  0.8220  0.7347  0.7347  0.4541  0.4541
  0.1772

 Free energy of the ion-electron system (eV)
  ---------------------------------------------------
  alpha Z        PSCENC =         0.81223224
  Ewald energy   TEWEN  =       145.29194979
  -Hartree energ DENC   =      -638.52240645
  -exchange      EXHF   =         0.00000000
  -V(xc)+E(xc)   XCENC  =        42.15378810
  PAW double counting   =       990.95275500     -991.90647261
  entropy T*S    EENTRO =         0.01097390
  eigenvalues    EBANDS =      -165.04571117
  atomic energy  EATOM  =       593.94817731
  Solvation  Ediel_sol  =         0.00000000
  ---------------------------------------------------
  free energy    TOTEN  =       -22.30471390 eV

  energy without entropy =      -22.31568780  energy(sigma->0) =      -22.30745738


--------------------------------------------------------------------------------------------------------




----------------------------------------- Iteration    1(  17)  ---------------------------------------


    POTLOK:  cpu time    0.3050: real time    0.3058
    SETDIJ:  cpu time    0.0070: real time    0.0065
    EDDIAG:  cpu time    0.0400: real time    0.0392
  RMM-DIIS:  cpu time    0.3419: real time    0.3433
    ORTHCH:  cpu time    0.0030: real time    0.0024
       DOS:  cpu time    0.0000: real time    0.0003
    CHARGE:  cpu time    0.0580: real time    0.0582
    MIXING:  cpu time    0.0120: real time    0.0117
    --------------------------------------------
      LOOP:  cpu time    0.7669: real time    0.7700

 eigenvalue-minimisations  :    70
 total energy-change (2. order) : 0.4151620E-04  (-0.3708569E-05)
 number of electron      13.9999990 magnetization       0.0000000
 augmentation part       -0.8042675 magnetization       0.0000015

 Broyden mixing:
  rms(total) = 0.10214E-01    rms(broyden)= 0.10213E-01
  rms(prec ) = 0.10781E-01
  weight for this iteration     100.00

 eigenvalues of (default mixing * dielectric matrix)
  average eigenvalue GAMMA=   1.4568
  4.9730  2.3972  2.2017  1.9006  0.8507  1.2492  0.9118  0.9118  0.4554  0.4554
  0.5875  0.5875

 Free energy of the ion-electron system (eV)
  ---------------------------------------------------
  alpha Z        PSCENC =         0.81223224
  Ewald energy   TEWEN  =       145.29194979
  -Hartree energ DENC   =      -638.52388064
  -exchange      EXHF   =         0.00000000
  -V(xc)+E(xc)   XCENC  =        42.15382225
  PAW double counting   =       990.94350156     -991.89717854
  entropy T*S    EENTRO =         0.01116639
  eigenvalues    EBANDS =      -165.04446274
  atomic energy  EATOM  =       593.94817731
  Solvation  Ediel_sol  =         0.00000000
  ---------------------------------------------------
  free energy    TOTEN  =       -22.30467239 eV

  energy without entropy =      -22.31583878  energy(sigma->0) =      -22.30746398


--------------------------------------------------------------------------------------------------------




----------------------------------------- Iteration    1(  18)  ---------------------------------------


    POTLOK:  cpu time    0.3040: real time    0.3042
    SETDIJ:  cpu time    0.0070: real time    0.0064
    EDDIAG:  cpu time    0.0390: real time    0.0393
  RMM-DIIS:  cpu time    0.3090: real time    0.3096
    ORTHCH:  cpu time    0.0030: real time    0.0022
       DOS:  cpu time    0.0000: real time    0.0003
    CHARGE:  cpu time    0.0580: real time    0.0580
    MIXING:  cpu time    0.0120: real time    0.0121
    --------------------------------------------
      LOOP:  cpu time    0.7329: real time    0.7359

 eigenvalue-minimisations  :    64
 total energy-change (2. order) :-0.4061335E-03  (-0.4912720E-05)
 number of electron      13.9999990 magnetization       0.0000000
 augmentation part       -0.8043048 magnetization       0.0000015

 Broyden mixing:
  rms(total) = 0.27803E-02    rms(broyden)= 0.27788E-02
  rms(prec ) = 0.39070E-02
  weight for this iteration     100.00

 eigenvalues of (default mixing * dielectric matrix)
  average eigenvalue GAMMA=   1.5924
  6.0265  2.5206  2.4588  1.0855  1.6927  1.6927  1.2529  1.0202  0.4548  0.4548
  0.7604  0.6410  0.6410

 Free energy of the ion-electron system (eV)
  ---------------------------------------------------
  alpha Z        PSCENC =         0.81223224
  Ewald energy   TEWEN  =       145.29194979
  -Hartree energ DENC   =      -638.50502687
  -exchange      EXHF   =         0.00000000
  -V(xc)+E(xc)   XCENC  =        42.15231985
  PAW double counting   =       990.97570434     -991.92916880
  entropy T*S    EENTRO =         0.01004277
  eigenvalues    EBANDS =      -165.06130915
  atomic energy  EATOM  =       593.94817731
  Solvation  Ediel_sol  =         0.00000000
  ---------------------------------------------------
  free energy    TOTEN  =       -22.30507852 eV

  energy without entropy =      -22.31512129  energy(sigma->0) =      -22.30758921


--------------------------------------------------------------------------------------------------------




----------------------------------------- Iteration    1(  19)  ---------------------------------------


    POTLOK:  cpu time    0.3050: real time    0.3053
    SETDIJ:  cpu time    0.0070: real time    0.0064
    EDDIAG:  cpu time    0.0390: real time    0.0393
  RMM-DIIS:  cpu time    0.2210: real time    0.2211
    ORTHCH:  cpu time    0.0020: real time    0.0024
       DOS:  cpu time    0.0000: real time    0.0003
    CHARGE:  cpu time    0.0590: real time    0.0581
    MIXING:  cpu time    0.0120: real time    0.0125
    --------------------------------------------
      LOOP:  cpu time    0.6459: real time    0.6481

 eigenvalue-minimisations  :    54
 total energy-change (2. order) :-0.8653603E-03  (-0.1009756E-04)
 number of electron      13.9999990 magnetization       0.0000000
 augmentation part       -0.8043625 magnetization       0.0000005

 Broyden mixing:
  rms(total) = 0.13677E-02    rms(broyden)= 0.13660E-02
  rms(prec ) = 0.19025E-02
  weight for this iteration     100.00

 eigenvalues of (default mixing * dielectric matrix)
  average eigenvalue GAMMA=   1.5956
  6.0340  2.9467  1.1211  2.4413  1.8726  1.8726  1.2258  1.0190  1.0190  0.4549
  0.4549  0.6451  0.6154  0.6154

 Free energy of the ion-electron system (eV)
  ---------------------------------------------------
  alpha Z        PSCENC =         0.81223224
  Ewald energy   TEWEN  =       145.29194979
  -Hartree energ DENC   =      -638.45520900
  -exchange      EXHF   =         0.00000000
  -V(xc)+E(xc)   XCENC  =        42.14832917
  PAW double counting   =       991.16735919     -992.12069636
  entropy T*S    EENTRO =         0.01018145
  eigenvalues    EBANDS =      -165.10826766
  atomic energy  EATOM  =       593.94817731
  Solvation  Ediel_sol  =         0.00000000
  ---------------------------------------------------
  free energy    TOTEN  =       -22.30594388 eV

  energy without entropy =      -22.31612533  energy(sigma->0) =      -22.30848924


--------------------------------------------------------------------------------------------------------




----------------------------------------- Iteration    1(  20)  ---------------------------------------


    POTLOK:  cpu time    0.3040: real time    0.3048
    SETDIJ:  cpu time    0.0070: real time    0.0064
    EDDIAG:  cpu time    0.0390: real time    0.0391
  RMM-DIIS:  cpu time    0.2680: real time    0.2683
    ORTHCH:  cpu time    0.0030: real time    0.0023
       DOS:  cpu time    0.0000: real time    0.0003
    CHARGE:  cpu time    0.0570: real time    0.0581
    MIXING:  cpu time    0.0140: real time    0.0129
    --------------------------------------------
      LOOP:  cpu time    0.6929: real time    0.6950

 eigenvalue-minimisations  :    60
 total energy-change (2. order) :-0.2566463E-03  (-0.2985921E-05)
 number of electron      13.9999990 magnetization       0.0000000
 augmentation part       -0.8043304 magnetization       0.0000002

 Broyden mixing:
  rms(total) = 0.33002E-02    rms(broyden)= 0.32999E-02
  rms(prec ) = 0.34491E-02
  weight for this iteration     100.00

 eigenvalues of (default mixing * dielectric matrix)
  average eigenvalue GAMMA=   1.6509
  6.4725  3.5843  1.1178  2.3973  1.9890  1.9890  1.1948  1.1523  1.1523  0.8589
  0.4549  0.4549  0.6577  0.6577  0.6305

 Free energy of the ion-electron system (eV)
  ---------------------------------------------------
  alpha Z        PSCENC =         0.81223224
  Ewald energy   TEWEN  =       145.29194979
  -Hartree energ DENC   =      -638.46433702
  -exchange      EXHF   =         0.00000000
  -V(xc)+E(xc)   XCENC  =        42.14841965
  PAW double counting   =       991.15021566     -992.10387892
  entropy T*S    EENTRO =         0.00974246
  eigenvalues    EBANDS =      -165.09872169
  atomic energy  EATOM  =       593.94817731
  Solvation  Ediel_sol  =         0.00000000
  ---------------------------------------------------
  free energy    TOTEN  =       -22.30620053 eV

  energy without entropy =      -22.31594299  energy(sigma->0) =      -22.30863614


--------------------------------------------------------------------------------------------------------




----------------------------------------- Iteration    1(  21)  ---------------------------------------


    POTLOK:  cpu time    0.3050: real time    0.3045
    SETDIJ:  cpu time    0.0070: real time    0.0068
    EDDIAG:  cpu time    0.0380: real time    0.0382
  RMM-DIIS:  cpu time    0.2250: real time    0.2259
    ORTHCH:  cpu time    0.0030: real time    0.0026
       DOS:  cpu time    0.0010: real time    0.0003
    CHARGE:  cpu time    0.0560: real time    0.0568
    MIXING:  cpu time    0.0140: real time    0.0133
    --------------------------------------------
      LOOP:  cpu time    0.6489: real time    0.6510

 eigenvalue-minimisations  :    52
 total energy-change (2. order) :-0.2509911E-03  (-0.2714702E-05)
 number of electron      13.9999990 magnetization       0.0000000
 augmentation part       -0.8042853 magnetization       0.0000022

 Broyden mixing:
  rms(total) = 0.10397E-02    rms(broyden)= 0.10395E-02
  rms(prec ) = 0.11479E-02
  weight for this iteration     100.00

 eigenvalues of (default mixing * dielectric matrix)
  average eigenvalue GAMMA=   1.6954
  7.1684  3.9998  2.3625  2.3625  1.1172  1.6258  1.3499  1.3499  1.2300  0.9311
  0.4549  0.4549  0.8153  0.6357  0.6357  0.6334

 Free energy of the ion-electron system (eV)
  ---------------------------------------------------
  alpha Z        PSCENC =         0.81223224
  Ewald energy   TEWEN  =       145.29194979
  -Hartree energ DENC   =      -638.47805345
  -exchange      EXHF   =         0.00000000
  -V(xc)+E(xc)   XCENC  =        42.14881318
  PAW double counting   =       991.20975492     -992.16375960
  entropy T*S    EENTRO =         0.01002031
  eigenvalues    EBANDS =      -165.08558621
  atomic energy  EATOM  =       593.94817731
  Solvation  Ediel_sol  =         0.00000000
  ---------------------------------------------------
  free energy    TOTEN  =       -22.30645152 eV

  energy without entropy =      -22.31647183  energy(sigma->0) =      -22.30895659


--------------------------------------------------------------------------------------------------------




----------------------------------------- Iteration    1(  22)  ---------------------------------------


    POTLOK:  cpu time    0.3050: real time    0.3050
    SETDIJ:  cpu time    0.0070: real time    0.0065
    EDDIAG:  cpu time    0.0390: real time    0.0395
  RMM-DIIS:  cpu time    0.3260: real time    0.3257
    ORTHCH:  cpu time    0.0020: real time    0.0023
       DOS:  cpu time    0.0010: real time    0.0003
    CHARGE:  cpu time    0.0570: real time    0.0579
    MIXING:  cpu time    0.0150: real time    0.0138
    --------------------------------------------
      LOOP:  cpu time    0.7519: real time    0.7536

 eigenvalue-minimisations  :    62
 total energy-change (2. order) :-0.5271487E-04  (-0.9243107E-06)
 number of electron      13.9999990 magnetization       0.0000000
 augmentation part       -0.8042819 magnetization       0.0000006

 Broyden mixing:
  rms(total) = 0.21615E-02    rms(broyden)= 0.21612E-02
  rms(prec ) = 0.21860E-02
  weight for this iteration     100.00

 eigenvalues of (default mixing * dielectric matrix)
  average eigenvalue GAMMA=   1.6988
  7.5014  4.1588  1.1176  2.4936  2.2938  1.7260  1.4377  1.4377  1.2578  1.0111
  0.9707  0.4549  0.4549  0.6452  0.6452  0.6367  0.6367

 Free energy of the ion-electron system (eV)
  ---------------------------------------------------
  alpha Z        PSCENC =         0.81223224
  Ewald energy   TEWEN  =       145.29194979
  -Hartree energ DENC   =      -638.47411830
  -exchange      EXHF   =         0.00000000
  -V(xc)+E(xc)   XCENC  =        42.14862707
  PAW double counting   =       991.24102256     -992.19497200
  entropy T*S    EENTRO =         0.01037415
  eigenvalues    EBANDS =      -165.08979704
  atomic energy  EATOM  =       593.94817731
  Solvation  Ediel_sol  =         0.00000000
  ---------------------------------------------------
  free energy    TOTEN  =       -22.30650423 eV

  energy without entropy =      -22.31687838  energy(sigma->0) =      -22.30909777


--------------------------------------------------------------------------------------------------------




----------------------------------------- Iteration    1(  23)  ---------------------------------------


    POTLOK:  cpu time    0.3060: real time    0.3062
    SETDIJ:  cpu time    0.0070: real time    0.0066
    EDDIAG:  cpu time    0.0400: real time    0.0400
  RMM-DIIS:  cpu time    0.2650: real time    0.2652
    ORTHCH:  cpu time    0.0020: real time    0.0022
       DOS:  cpu time    0.0010: real time    0.0003
    CHARGE:  cpu time    0.0580: real time    0.0582
    MIXING:  cpu time    0.0140: real time    0.0142
    --------------------------------------------
      LOOP:  cpu time    0.6929: real time    0.6953

 eigenvalue-minimisations  :    53
 total energy-change (2. order) :-0.4884676E-04  (-0.4292955E-06)
 number of electron      13.9999990 magnetization       0.0000000
 augmentation part       -0.8042932 magnetization      -0.0000002

 Broyden mixing:
  rms(total) = 0.36445E-03    rms(broyden)= 0.36395E-03
  rms(prec ) = 0.40571E-03
  weight for this iteration     100.00

 eigenvalues of (default mixing * dielectric matrix)
  average eigenvalue GAMMA=   1.7844
  8.2540  4.4483  1.1175  2.8791  2.2883  2.2883  1.6019  1.6019  1.2341  1.1843
  0.9478  0.4549  0.4549  0.8020  0.6476  0.6476  0.6330  0.6330

 Free energy of the ion-electron system (eV)
  ---------------------------------------------------
  alpha Z        PSCENC =         0.81223224
  Ewald energy   TEWEN  =       145.29194979
  -Hartree energ DENC   =      -638.47047491
  -exchange      EXHF   =         0.00000000
  -V(xc)+E(xc)   XCENC  =        42.14857668
  PAW double counting   =       991.20657053     -992.16044658
  entropy T*S    EENTRO =         0.01009296
  eigenvalues    EBANDS =      -165.09323110
  atomic energy  EATOM  =       593.94817731
  Solvation  Ediel_sol  =         0.00000000
  ---------------------------------------------------
  free energy    TOTEN  =       -22.30655308 eV

  energy without entropy =      -22.31664604  energy(sigma->0) =      -22.30907632


--------------------------------------------------------------------------------------------------------




----------------------------------------- Iteration    1(  24)  ---------------------------------------


    POTLOK:  cpu time    0.3060: real time    0.3070
    SETDIJ:  cpu time    0.0070: real time    0.0066
    EDDIAG:  cpu time    0.0400: real time    0.0394
  RMM-DIIS:  cpu time    0.2210: real time    0.2217
    ORTHCH:  cpu time    0.0020: real time    0.0030
       DOS:  cpu time    0.0010: real time    0.0003
    CHARGE:  cpu time    0.0580: real time    0.0585
    MIXING:  cpu time    0.0150: real time    0.0150
    --------------------------------------------
      LOOP:  cpu time    0.6509: real time    0.6540

 eigenvalue-minimisations  :    41
 total energy-change (2. order) :-0.2494697E-04  (-0.1428147E-06)
 number of electron      13.9999990 magnetization       0.0000000
 augmentation part       -0.8042898 magnetization      -0.0000007

 Broyden mixing:
  rms(total) = 0.76083E-03    rms(broyden)= 0.76077E-03
  rms(prec ) = 0.77188E-03
  weight for this iteration     100.00

 eigenvalues of (default mixing * dielectric matrix)
  average eigenvalue GAMMA=   1.7606
  8.4192  4.5362  3.0857  1.1174  2.2735  2.2735  1.6508  1.3403  1.3403  1.2675
  0.9708  0.9708  0.4549  0.4549  0.6969  0.6969  0.6428  0.6428  0.6158

 Free energy of the ion-electron system (eV)
  ---------------------------------------------------
  alpha Z        PSCENC =         0.81223224
  Ewald energy   TEWEN  =       145.29194979
  -Hartree energ DENC   =      -638.47363295
  -exchange      EXHF   =         0.00000000
  -V(xc)+E(xc)   XCENC  =        42.14876144
  PAW double counting   =       991.16646345     -992.12036256
  entropy T*S    EENTRO =         0.01003731
  eigenvalues    EBANDS =      -165.09020405
  atomic energy  EATOM  =       593.94817731
  Solvation  Ediel_sol  =         0.00000000
  ---------------------------------------------------
  free energy    TOTEN  =       -22.30657803 eV

  energy without entropy =      -22.31661534  energy(sigma->0) =      -22.30908735


--------------------------------------------------------------------------------------------------------




----------------------------------------- Iteration    1(  25)  ---------------------------------------


    POTLOK:  cpu time    0.3080: real time    0.3088
    SETDIJ:  cpu time    0.0070: real time    0.0066
    EDDIAG:  cpu time    0.0400: real time    0.0395
  RMM-DIIS:  cpu time    0.2470: real time    0.2480
    ORTHCH:  cpu time    0.0030: real time    0.0023
       DOS:  cpu time    0.0000: real time    0.0003
    CHARGE:  cpu time    0.0580: real time    0.0582
    MIXING:  cpu time    0.0160: real time    0.0154
    --------------------------------------------
      LOOP:  cpu time    0.6799: real time    0.6814

 eigenvalue-minimisations  :    46
 total energy-change (2. order) :-0.4679633E-05  (-0.4894010E-07)
 number of electron      13.9999990 magnetization       0.0000000
 augmentation part       -0.8042880 magnetization      -0.0000001

 Broyden mixing:
  rms(total) = 0.28639E-03    rms(broyden)= 0.28624E-03
  rms(prec ) = 0.29889E-03
  weight for this iteration     100.00

 eigenvalues of (default mixing * dielectric matrix)
  average eigenvalue GAMMA=   1.7747
  8.3993  4.7763  3.0467  1.1174  2.3925  1.9404  1.9404  1.7106  1.7106  1.2609
  1.0920  1.0920  0.4549  0.4549  0.8543  0.7244  0.6364  0.6364  0.6471  0.6071

 Free energy of the ion-electron system (eV)
  ---------------------------------------------------
  alpha Z        PSCENC =         0.81223224
  Ewald energy   TEWEN  =       145.29194979
  -Hartree energ DENC   =      -638.47443530
  -exchange      EXHF   =         0.00000000
  -V(xc)+E(xc)   XCENC  =        42.14875070
  PAW double counting   =       991.15755319     -992.11145524
  entropy T*S    EENTRO =         0.01015580
  eigenvalues    EBANDS =      -165.08951119
  atomic energy  EATOM  =       593.94817731
  Solvation  Ediel_sol  =         0.00000000
  ---------------------------------------------------
  free energy    TOTEN  =       -22.30658271 eV

  energy without entropy =      -22.31673851  energy(sigma->0) =      -22.30912166


--------------------------------------------------------------------------------------------------------




----------------------------------------- Iteration    1(  26)  ---------------------------------------


    POTLOK:  cpu time    0.3090: real time    0.3092
    SETDIJ:  cpu time    0.0060: real time    0.0066
    EDDIAG:  cpu time    0.0400: real time    0.0395
  RMM-DIIS:  cpu time    0.2140: real time    0.2146
    ORTHCH:  cpu time    0.0020: real time    0.0023
       DOS:  cpu time    0.0000: real time    0.0003
    CHARGE:  cpu time    0.0570: real time    0.0579
    MIXING:  cpu time    0.0170: real time    0.0159
    --------------------------------------------
      LOOP:  cpu time    0.6469: real time    0.6487

 eigenvalue-minimisations  :    40
 total energy-change (2. order) :-0.6317695E-05  (-0.2497022E-07)
 number of electron      13.9999990 magnetization       0.0000000
 augmentation part       -0.8042912 magnetization       0.0000002

 Broyden mixing:
  rms(total) = 0.17262E-03    rms(broyden)= 0.17259E-03
  rms(prec ) = 0.17668E-03
  weight for this iteration     100.00

 eigenvalues of (default mixing * dielectric matrix)
  average eigenvalue GAMMA=   1.7834
  8.3490  5.2797  2.9590  2.9590  1.1174  2.2567  2.2567  1.4954  1.4954  1.2328
  1.2328  1.0014  1.0014  0.4549  0.4549  0.6345  0.6345  0.7167  0.7167  0.6229
  0.5800

 Free energy of the ion-electron system (eV)
  ---------------------------------------------------
  alpha Z        PSCENC =         0.81223224
  Ewald energy   TEWEN  =       145.29194979
  -Hartree energ DENC   =      -638.47181774
  -exchange      EXHF   =         0.00000000
  -V(xc)+E(xc)   XCENC  =        42.14859464
  PAW double counting   =       991.15135494     -992.10521461
  entropy T*S    EENTRO =         0.01010583
  eigenvalues    EBANDS =      -165.09197141
  atomic energy  EATOM  =       593.94817731
  Solvation  Ediel_sol  =         0.00000000
  ---------------------------------------------------
  free energy    TOTEN  =       -22.30658902 eV

  energy without entropy =      -22.31669486  energy(sigma->0) =      -22.30911548


--------------------------------------------------------------------------------------------------------




----------------------------------------- Iteration    1(  27)  ---------------------------------------


    POTLOK:  cpu time    0.3080: real time    0.3085
    SETDIJ:  cpu time    0.0070: real time    0.0066
    EDDIAG:  cpu time    0.0390: real time    0.0395
  RMM-DIIS:  cpu time    0.2660: real time    0.2661
    ORTHCH:  cpu time    0.0030: real time    0.0026
       DOS:  cpu time    0.0000: real time    0.0003
    CHARGE:  cpu time    0.0570: real time    0.0582
    MIXING:  cpu time    0.0170: real time    0.0165
    --------------------------------------------
      LOOP:  cpu time    0.6989: real time    0.7010

 eigenvalue-minimisations  :    40
 total energy-change (2. order) :-0.1157575E-05  (-0.6092766E-08)
 number of electron      13.9999990 magnetization       0.0000000
 augmentation part       -0.8042919 magnetization       0.0000002

 Broyden mixing:
  rms(total) = 0.11328E-03    rms(broyden)= 0.11325E-03
  rms(prec ) = 0.11554E-03
  weight for this iteration     100.00

 eigenvalues of (default mixing * dielectric matrix)
  average eigenvalue GAMMA=   1.7475
  8.3929  5.3955  3.3502  2.6233  1.1174  2.3894  1.8695  1.6038  1.6038  1.1645
  1.1645  1.0349  1.0349  0.4549  0.4549  0.9442  0.6327  0.6327  0.7077  0.6395
  0.6395  0.5931

 Free energy of the ion-electron system (eV)
  ---------------------------------------------------
  alpha Z        PSCENC =         0.81223224
  Ewald energy   TEWEN  =       145.29194979
  -Hartree energ DENC   =      -638.47133747
  -exchange      EXHF   =         0.00000000
  -V(xc)+E(xc)   XCENC  =        42.14858491
  PAW double counting   =       991.15600369     -992.10985760
  entropy T*S    EENTRO =         0.01013700
  eigenvalues    EBANDS =      -165.09248005
  atomic energy  EATOM  =       593.94817731
  Solvation  Ediel_sol  =         0.00000000
  ---------------------------------------------------
  free energy    TOTEN  =       -22.30659018 eV

  energy without entropy =      -22.31672718  energy(sigma->0) =      -22.30912443


--------------------------------------------------------------------------------------------------------




----------------------------------------- Iteration    1(  28)  ---------------------------------------


    POTLOK:  cpu time    0.3130: real time    0.3138
    SETDIJ:  cpu time    0.0070: real time    0.0066
    EDDIAG:  cpu time    0.0390: real time    0.0393
  RMM-DIIS:  cpu time    0.2590: real time    0.2590
    ORTHCH:  cpu time    0.0030: real time    0.0026
       DOS:  cpu time    0.0000: real time    0.0003
    --------------------------------------------
      LOOP:  cpu time    0.6219: real time    0.6242

 eigenvalue-minimisations  :    34
 total energy-change (2. order) :-0.6301614E-06  ( 0.0000000E+00)
 number of electron      13.9999990 magnetization       0.0000000
 augmentation part       -0.8042919 magnetization       0.0000002

 Free energy of the ion-electron system (eV)
  ---------------------------------------------------
  alpha Z        PSCENC =         0.81223224
  Ewald energy   TEWEN  =       145.29194979
  -Hartree energ DENC   =      -638.47161960
  -exchange      EXHF   =         0.00000000
  -V(xc)+E(xc)   XCENC  =        42.14861220
  PAW double counting   =       991.15665778     -992.11051970
  entropy T*S    EENTRO =         0.01012135
  eigenvalues    EBANDS =      -165.09220216
  atomic energy  EATOM  =       593.94817731
  Solvation  Ediel_sol  =         0.00000000
  ---------------------------------------------------
  free energy    TOTEN  =       -22.30659081 eV

  energy without entropy =      -22.31671216  energy(sigma->0) =      -22.30912115


--------------------------------------------------------------------------------------------------------




 average (electrostatic) potential at core
  the test charge radii are     0.6991  0.9406  0.5201
  (the norm of the test charge is              1.0000)
       1 -59.8525       2-100.3379       3 -42.1923       4 -42.1927       5 -42.1924
 
 
 
 E-fermi :  -6.6785     XC(G=0):  -0.9754     alpha+bet : -0.3713


 spin component 1

 k-point     1 :       0.0000    0.0000    0.0000
  band No.  band energies     occupation 
      1     -21.1402      1.00000
      2     -16.4638      1.00000
      3     -10.6681      1.00000
      4     -10.6486      1.00000
      5     -10.0830      1.00000
      6      -6.8059      1.03079
      7      -6.7344      0.96921
      8      -0.5529      0.00000
      9      -0.1371      0.00000
     10       0.9437      0.00000
     11       0.9745      0.00000
     12       1.0045      0.00000

 spin component 2

 k-point     1 :       0.0000    0.0000    0.0000
  band No.  band energies     occupation 
      1     -21.1402      1.00000
      2     -16.4638      1.00000
      3     -10.6682      1.00000
      4     -10.6485      1.00000
      5     -10.0830      1.00000
      6      -6.8059      1.03078
      7      -6.7344      0.96922
      8      -0.5529      0.00000
      9      -0.1371      0.00000
     10       0.9454      0.00000
     11       0.9725      0.00000
     12       1.0045      0.00000


--------------------------------------------------------------------------------------------------------


 soft charge-density along one line, spin component           1
         0         1         2         3         4         5         6         7         8         9
 total charge-density along one line
 
 soft charge-density along one line, spin component           2
         0         1         2         3         4         5         6         7         8         9
 total charge-density along one line
 
 pseudopotential strength for first ion, spin component:           1
 10.295  13.693  -0.000  -0.000   0.005   0.000   0.000  -0.015
 13.693  18.211  -0.000  -0.000   0.007   0.000   0.000  -0.020
 -0.000  -0.000  -4.442   0.000  -0.000   8.698  -0.001  -0.000
 -0.000  -0.000   0.000  -4.442  -0.000  -0.001   8.698   0.000
  0.005   0.007  -0.000  -0.000  -4.452  -0.000   0.000   8.719
  0.000   0.000   8.698  -0.001  -0.000 -19.173   0.001   0.000
  0.000   0.000  -0.001   8.698   0.000   0.001 -19.173  -0.000
 -0.015  -0.020  -0.000   0.000   8.719   0.000  -0.000 -19.221
 pseudopotential strength for first ion, spin component:           2
 10.295  13.693   0.000   0.000   0.005  -0.000  -0.000  -0.015
 13.693  18.211   0.000   0.000   0.007  -0.000  -0.000  -0.020
  0.000   0.000  -4.442  -0.000   0.000   8.698   0.001  -0.000
  0.000   0.000  -0.000  -4.442   0.000   0.001   8.698  -0.000
  0.005   0.007   0.000   0.000  -4.452  -0.000  -0.000   8.719
 -0.000  -0.000   8.698   0.001  -0.000 -19.173  -0.001   0.000
 -0.000  -0.000   0.001   8.698  -0.000  -0.001 -19.173   0.000
 -0.015  -0.020  -0.000  -0.000   8.719   0.000   0.000 -19.221
 total augmentation occupancy for first ion, spin component:           1
  5.687  -2.165   0.002  -0.004  -0.057   0.000  -0.000  -0.003
 -2.165   0.856  -0.001   0.003  -0.073  -0.000   0.000  -0.013
  0.002  -0.001   1.832  -0.000  -0.000   0.190  -0.000  -0.000
 -0.004   0.003  -0.000   1.833  -0.000  -0.000   0.190  -0.000
 -0.057  -0.073  -0.000  -0.000   1.338  -0.000   0.000   0.148
  0.000  -0.000   0.190  -0.000  -0.000   0.020  -0.000  -0.000
 -0.000   0.000  -0.000   0.190   0.000  -0.000   0.020  -0.000
 -0.003  -0.013  -0.000  -0.000   0.148  -0.000  -0.000   0.017
 total augmentation occupancy for first ion, spin component:           2
 -0.000   0.000   0.000   0.001   0.000   0.000   0.000   0.000
  0.000  -0.000  -0.000  -0.001  -0.000  -0.000  -0.000  -0.000
  0.000  -0.000   0.000  -0.006   0.000   0.000  -0.000  -0.000
  0.001  -0.001  -0.006  -0.000   0.000  -0.000  -0.000  -0.000
  0.000  -0.000   0.000   0.000   0.000  -0.000  -0.000   0.000
  0.000  -0.000   0.000  -0.000  -0.000   0.000  -0.000  -0.000
  0.000  -0.000  -0.000  -0.000  -0.000  -0.000  -0.000  -0.000
  0.000  -0.000  -0.000  -0.000   0.000  -0.000  -0.000   0.000


------------------------ aborting loop because EDIFF is reached ----------------------------------------



 DIPCOR: dipole corrections for dipol
 direction  3 min pos     1,
 dipolmoment           0.000000      0.000000     -0.000011 electrons x Angstroem
 Tr[quadrupol]      -531.079649

 energy correction for charged system         0.000000 eV
 dipol+quadrupol energy correction            0.000000 eV
 added-field ion interaction          0.000000 eV  (added to PSCEN)

 
  *************** adding dipol energy to TOTEN NOW **************** 
 


 total charge     
 
# of ion     s       p       d       tot
----------------------------------------
  1        0.827   1.745   0.000   2.573
  2        1.597   3.530   0.000   5.127
  3        0.653   0.040   0.000   0.692
  4        0.653   0.039   0.000   0.692
  5        0.653   0.039   0.000   0.692
------------------------------------------------
tot        4.382   5.393   0.000   9.776
 


 magnetization (x)
 
# of ion     s       p       d       tot
----------------------------------------
  1       -0.000   0.000   0.000   0.000
  2       -0.000  -0.000   0.000  -0.000
  3        0.002   0.000   0.000   0.002
  4       -0.003  -0.000   0.000  -0.003
  5        0.001   0.000   0.000   0.001
------------------------------------------------
tot       -0.000  -0.000   0.000  -0.000
 
    CHARGE:  cpu time    0.0570: real time    0.0573
    FORLOC:  cpu time    0.0090: real time    0.0091
    FORNL :  cpu time    0.0740: real time    0.0737
    STRESS:  cpu time    0.2170: real time    0.2182
    FORCOR:  cpu time    0.2870: real time    0.2862
    FORHAR:  cpu time    0.0390: real time    0.0396
    MIXING:  cpu time    0.0170: real time    0.0170
    OFIELD:  cpu time    0.0000: real time    0.0000

  FORCE on cell =-STRESS in cart. coord.  units (eV):
  Direction    XX          YY          ZZ          XY          YZ          ZX
  --------------------------------------------------------------------------------------
  Alpha Z     0.81223     0.81223     0.81223
  Ewald     225.27490   -39.99206   -39.99102     0.03138    -0.00030     0.00623
  Hartree   321.73805   158.36607   158.36709     0.02373    -0.00046     0.00436
  E(xc)     -49.80685   -50.24377   -50.24365    -0.00001    -0.00002    -0.00000
  Local    -742.92781  -334.86025  -334.86300    -0.05347     0.00146    -0.00994
  n-local    70.57913    69.83369    69.83325     0.00004     0.00025     0.00035
  augment   -18.57151   -20.08914   -20.08922     0.00013     0.00004    -0.00008
  Kinetic   191.88686   214.57565   214.56334     0.00181     0.00087     0.00003
  Fock        0.00000     0.00000     0.00000     0.00000     0.00000     0.00000
  -------------------------------------------------------------------------------------
  Total      -1.01501    -1.59758    -1.61097     0.00361     0.00185     0.00095
  in kB      -1.62622    -2.55961    -2.58106     0.00579     0.00297     0.00152
  external pressure =       -2.26 kB  Pullay stress =        0.00 kB


 VOLUME and BASIS-vectors are now :
 -----------------------------------------------------------------------------
  energy-cutoff  :      300.00
  volume of cell :     1000.00
      direct lattice vectors                 reciprocal lattice vectors
    10.000000000  0.000000000  0.000000000     0.100000000  0.000000000  0.000000000
     0.000000000 10.000000000  0.000000000     0.000000000  0.100000000  0.000000000
     0.000000000  0.000000000 10.000000000     0.000000000  0.000000000  0.100000000

  length of vectors
    10.000000000 10.000000000 10.000000000     0.100000000  0.100000000  0.100000000


 FORCES acting on ions
    electron-ion (+dipol)            ewald-force                    non-local-force                 convergence-correction
 -----------------------------------------------------------------------------------------------
   0.731E+02 -.106E-01 -.451E-02   -.788E+02 0.146E-01 0.303E-02   0.561E+01 -.446E-02 -.128E-02   0.223E-04 0.285E-04 -.774E-05
   -.164E+03 -.222E-01 -.496E-02   0.172E+03 0.216E-01 0.425E-02   -.777E+01 -.662E-03 0.267E-03   -.278E-03 0.157E-04 0.645E-05
   0.290E+02 0.243E+02 -.492E+02   -.310E+02 -.268E+02 0.543E+02   0.187E+01 0.237E+01 -.480E+01   0.195E-05 0.635E-05 -.512E-05
   0.290E+02 0.305E+02 0.457E+02   -.310E+02 -.336E+02 -.504E+02   0.187E+01 0.297E+01 0.446E+01   0.487E-05 0.400E-05 0.519E-05
   0.290E+02 -.548E+02 0.355E+01   -.310E+02 0.604E+02 -.391E+01   0.187E+01 -.535E+01 0.346E+00   0.653E-05 -.467E-05 0.334E-05
 -----------------------------------------------------------------------------------------------
   -.346E+01 0.477E-02 -.741E-03   -.355E-13 0.000E+00 -.444E-14   0.346E+01 -.521E-02 0.645E-03   -.243E-03 0.499E-04 0.213E-05
 
 
 POSITION                                       TOTAL-FORCE (eV/Angst)
 -----------------------------------------------------------------------------------
      4.29503      4.77134      4.96668        -0.068721     -0.000360     -0.002755
      6.06200      4.77134      4.96668         0.289660     -0.001120     -0.000411
      3.93800      4.31404      5.89204        -0.072448     -0.128863      0.263081
      3.93800      4.19862      4.10796        -0.071669     -0.160368     -0.241441
      3.93800      5.80138      4.90004        -0.076822      0.290711     -0.018473
 -----------------------------------------------------------------------------------
    total drift:                                0.000403     -0.000383     -0.000094


--------------------------------------------------------------------------------------------------------



  FREE ENERGIE OF THE ION-ELECTRON SYSTEM (eV)
  ---------------------------------------------------
  free  energy   TOTEN  =       -22.30659081 eV

  energy  without entropy=      -22.31671216  energy(sigma->0) =      -22.30912115
 


--------------------------------------------------------------------------------------------------------


    POTLOK:  cpu time    0.3150: real time    0.3155


--------------------------------------------------------------------------------------------------------


 stress matrix after NEB project (eV)
     -1.01501      0.00361      0.00095
      0.00361     -1.59758      0.00185
      0.00095      0.00185     -1.61097
  FORCES: max atom, RMS     0.301771    0.268181
  FORCE total and by dimension    0.599670    0.290711
  Stress total and by dimension    2.485511    1.610968
     LOOP+:  cpu time   21.0088: real time   21.3833
    4ORBIT:  cpu time    0.0000: real time    0.0000
 


 total charge     
 
# of ion     s       p       d       tot
----------------------------------------
  1        0.827   1.745   0.000   2.573
  2        1.597   3.530   0.000   5.127
  3        0.653   0.040   0.000   0.692
  4        0.653   0.039   0.000   0.692
  5        0.653   0.039   0.000   0.692
------------------------------------------------
tot        4.382   5.393   0.000   9.776
 


 magnetization (x)
 
# of ion     s       p       d       tot
----------------------------------------
  1       -0.000   0.000   0.000   0.000
  2       -0.000  -0.000   0.000  -0.000
  3        0.002   0.000   0.000   0.002
  4       -0.003  -0.000   0.000  -0.003
  5        0.001   0.000   0.000   0.001
------------------------------------------------
tot       -0.000  -0.000   0.000  -0.000
 

 total amount of memory used by VASP on root node    61864. kBytes
========================================================================

   base      :      30000. kBytes
   nonlr-proj:       1173. kBytes
   fftplans  :       4935. kBytes
   grid      :      25349. kBytes
   one-center:         30. kBytes
   wavefun   :        377. kBytes
 
  
  
 General timing and accounting informations for this job:
 ========================================================
  
                  Total CPU time used (sec):       28.842
                            User time (sec):       26.099
                          System time (sec):        2.743
                         Elapsed time (sec):       30.604
  
                   Maximum memory used (kb):       97100.
                   Average memory used (kb):           0.
  
                          Minor page faults:        82650
                          Major page faults:           13
                 Voluntary context switches:         3647
