PROCAR lm decomposed
# of k-points:    1         # of bands:  12         # of ions:   5

 k-point    1 :    0.00000000 0.00000000 0.00000000     weight = 1.00000000

band   1 # energy  -21.14020014 # occ.  1.00000000
 
ion      s     py     pz     px    dxy    dyz    dz2    dxz    dx2    tot
  1  0.128  0.000  0.000  0.015  0.000  0.000  0.000  0.000  0.000  0.143
  2  0.572  0.000  0.000  0.026  0.000  0.000  0.000  0.000  0.000  0.598
  3  0.011  0.000  0.001  0.000  0.000  0.000  0.000  0.000  0.000  0.013
  4  0.011  0.000  0.001  0.000  0.000  0.000  0.000  0.000  0.000  0.013
  5  0.011  0.001  0.000  0.000  0.000  0.000  0.000  0.000  0.000  0.013
tot  0.735  0.001  0.001  0.042  0.000  0.000  0.000  0.000  0.000  0.780
 
band   2 # energy  -16.46376310 # occ.  1.00000000
 
ion      s     py     pz     px    dxy    dyz    dz2    dxz    dx2    tot
  1  0.285  0.000  0.000  0.019  0.000  0.000  0.000  0.000  0.000  0.305
  2  0.204  0.000  0.000  0.026  0.000  0.000  0.000  0.000  0.000  0.230
  3  0.067  0.001  0.004  0.000  0.000  0.000  0.000  0.000  0.000  0.072
  4  0.066  0.002  0.004  0.000  0.000  0.000  0.000  0.000  0.000  0.072
  5  0.066  0.005  0.000  0.000  0.000  0.000  0.000  0.000  0.000  0.072
tot  0.688  0.008  0.008  0.046  0.000  0.000  0.000  0.000  0.000  0.751
 
band   3 # energy  -10.66805450 # occ.  1.00000000
 
ion      s     py     pz     px    dxy    dyz    dz2    dxz    dx2    tot
  1  0.000  0.158  0.127  0.000  0.000  0.000  0.000  0.000  0.000  0.286
  2  0.000  0.042  0.034  0.000  0.000  0.000  0.000  0.000  0.000  0.077
  3  0.161  0.000  0.005  0.002  0.000  0.000  0.000  0.000  0.000  0.167
  4  0.004  0.002  0.000  0.000  0.000  0.000  0.000  0.000  0.000  0.006
  5  0.115  0.003  0.001  0.001  0.000  0.000  0.000  0.000  0.000  0.120
tot  0.279  0.206  0.167  0.003  0.000  0.000  0.000  0.000  0.000  0.655
 
band   4 # energy  -10.64861811 # occ.  1.00000000
 
ion      s     py     pz     px    dxy    dyz    dz2    dxz    dx2    tot
  1  0.000  0.128  0.159  0.000  0.000  0.000  0.000  0.000  0.000  0.287
  2  0.000  0.033  0.041  0.000  0.000  0.000  0.000  0.000  0.000  0.074
  3  0.026  0.003  0.000  0.000  0.000  0.000  0.000  0.000  0.000  0.029
  4  0.183  0.001  0.004  0.002  0.000  0.000  0.000  0.000  0.000  0.190
  5  0.072  0.002  0.002  0.001  0.000  0.000  0.000  0.000  0.000  0.076
tot  0.280  0.166  0.206  0.003  0.000  0.000  0.000  0.000  0.000  0.655
 
band   5 # energy  -10.08302802 # occ.  1.00000000
 
ion      s     py     pz     px    dxy    dyz    dz2    dxz    dx2    tot
  1  0.000  0.000  0.000  0.196  0.000  0.000  0.000  0.000  0.000  0.196
  2  0.023  0.000  0.000  0.426  0.000  0.000  0.000  0.000  0.000  0.449
  3  0.017  0.000  0.001  0.001  0.000  0.000  0.000  0.000  0.000  0.020
  4  0.018  0.000  0.001  0.001  0.000  0.000  0.000  0.000  0.000  0.020
  5  0.018  0.001  0.000  0.001  0.000  0.000  0.000  0.000  0.000  0.020
tot  0.076  0.002  0.002  0.625  0.000  0.000  0.000  0.000  0.000  0.705
 
band   6 # energy   -6.80585184 # occ.  1.03079002
 
ion      s     py     pz     px    dxy    dyz    dz2    dxz    dx2    tot
  1  0.000  0.019  0.016  0.000  0.000  0.000  0.000  0.000  0.000  0.036
  2  0.000  0.305  0.263  0.000  0.000  0.000  0.000  0.000  0.000  0.567
  3  0.039  0.000  0.001  0.000  0.000  0.000  0.000  0.000  0.000  0.040
  4  0.001  0.000  0.000  0.000  0.000  0.000  0.000  0.000  0.000  0.001
  5  0.027  0.001  0.000  0.000  0.000  0.000  0.000  0.000  0.000  0.027
tot  0.067  0.325  0.280  0.000  0.000  0.000  0.000  0.000  0.000  0.672
 
band   7 # energy   -6.73438577 # occ.  0.96920998
 
ion      s     py     pz     px    dxy    dyz    dz2    dxz    dx2    tot
  1  0.000  0.016  0.019  0.000  0.000  0.000  0.000  0.000  0.000  0.035
  2  0.000  0.263  0.305  0.000  0.000  0.000  0.000  0.000  0.000  0.568
  3  0.006  0.000  0.000  0.000  0.000  0.000  0.000  0.000  0.000  0.006
  4  0.043  0.000  0.001  0.000  0.000  0.000  0.000  0.000  0.000  0.044
  5  0.017  0.000  0.000  0.000  0.000  0.000  0.000  0.000  0.000  0.018
tot  0.066  0.280  0.325  0.000  0.000  0.000  0.000  0.000  0.000  0.670
 
band   8 # energy   -0.55287240 # occ.  0.00000000
 
ion      s     py     pz     px    dxy    dyz    dz2    dxz    dx2    tot
  1  0.055  0.000  0.000  0.006  0.000  0.000  0.000  0.000  0.000  0.061
  2  0.001  0.000  0.000  0.039  0.000  0.000  0.000  0.000  0.000  0.039
  3  0.000  0.000  0.002  0.001  0.000  0.000  0.000  0.000  0.000  0.003
  4  0.000  0.001  0.002  0.001  0.000  0.000  0.000  0.000  0.000  0.003
  5  0.000  0.002  0.000  0.001  0.000  0.000  0.000  0.000  0.000  0.003
tot  0.056  0.003  0.003  0.048  0.000  0.000  0.000  0.000  0.000  0.111
 
band   9 # energy   -0.13705536 # occ.  0.00000000
 
ion      s     py     pz     px    dxy    dyz    dz2    dxz    dx2    tot
  1  0.028  0.000  0.000  0.107  0.000  0.000  0.000  0.000  0.000  0.135
  2  0.042  0.000  0.000  0.077  0.000  0.000  0.000  0.000  0.000  0.118
  3  0.000  0.000  0.000  0.003  0.000  0.000  0.000  0.000  0.000  0.003
  4  0.000  0.000  0.000  0.003  0.000  0.000  0.000  0.000  0.000  0.003
  5  0.000  0.000  0.000  0.003  0.000  0.000  0.000  0.000  0.000  0.003
tot  0.070  0.000  0.000  0.194  0.000  0.000  0.000  0.000  0.000  0.264
 
band  10 # energy    0.94367871 # occ.  0.00000000
 
ion      s     py     pz     px    dxy    dyz    dz2    dxz    dx2    tot
  1  0.000  0.032  0.002  0.000  0.000  0.000  0.000  0.000  0.000  0.034
  2  0.000  0.003  0.000  0.000  0.000  0.000  0.000  0.000  0.000  0.003
  3  0.000  0.000  0.002  0.000  0.000  0.000  0.000  0.000  0.000  0.002
  4  0.000  0.000  0.001  0.000  0.000  0.000  0.000  0.000  0.000  0.001
  5  0.000  0.003  0.000  0.001  0.000  0.000  0.000  0.000  0.000  0.004
tot  0.001  0.037  0.005  0.001  0.000  0.000  0.000  0.000  0.000  0.044
 
band  11 # energy    0.97452788 # occ.  0.00000000
 
ion      s     py     pz     px    dxy    dyz    dz2    dxz    dx2    tot
  1  0.000  0.002  0.030  0.000  0.000  0.000  0.000  0.000  0.000  0.032
  2  0.000  0.000  0.004  0.000  0.000  0.000  0.000  0.000  0.000  0.005
  3  0.000  0.001  0.001  0.001  0.000  0.000  0.000  0.000  0.000  0.002
  4  0.000  0.001  0.002  0.001  0.000  0.000  0.000  0.000  0.000  0.004
  5  0.000  0.000  0.000  0.000  0.000  0.000  0.000  0.000  0.000  0.000
tot  0.000  0.004  0.037  0.001  0.000  0.000  0.000  0.000  0.000  0.042
 
band  12 # energy    1.00447508 # occ.  0.00000000
 
ion      s     py     pz     px    dxy    dyz    dz2    dxz    dx2    tot
  1  0.007  0.000  0.000  0.001  0.000  0.000  0.000  0.000  0.000  0.009
  2  0.005  0.000  0.000  0.002  0.000  0.000  0.000  0.000  0.000  0.007
  3  0.001  0.000  0.001  0.000  0.000  0.000  0.000  0.000  0.000  0.003
  4  0.001  0.000  0.001  0.000  0.000  0.000  0.000  0.000  0.000  0.002
  5  0.001  0.002  0.000  0.000  0.000  0.000  0.000  0.000  0.000  0.003
tot  0.015  0.002  0.002  0.004  0.000  0.000  0.000  0.000  0.000  0.023
 
# of k-points:    1         # of bands:  12         # of ions:   5

 k-point    1 :    0.00000000 0.00000000 0.00000000     weight = 1.00000000

band   1 # energy  -21.14019929 # occ.  1.00000000
 
ion      s     py     pz     px    dxy    dyz    dz2    dxz    dx2    tot
  1  0.128  0.000  0.000  0.015  0.000  0.000  0.000  0.000  0.000  0.143
  2  0.572  0.000  0.000  0.026  0.000  0.000  0.000  0.000  0.000  0.598
  3  0.011  0.000  0.001  0.000  0.000  0.000  0.000  0.000  0.000  0.013
  4  0.011  0.000  0.001  0.000  0.000  0.000  0.000  0.000  0.000  0.013
  5  0.011  0.001  0.000  0.000  0.000  0.000  0.000  0.000  0.000  0.013
tot  0.735  0.001  0.001  0.042  0.000  0.000  0.000  0.000  0.000  0.780
 
band   2 # energy  -16.46376385 # occ.  1.00000000
 
ion      s     py     pz     px    dxy    dyz    dz2    dxz    dx2    tot
  1  0.285  0.000  0.000  0.019  0.000  0.000  0.000  0.000  0.000  0.305
  2  0.204  0.000  0.000  0.026  0.000  0.000  0.000  0.000  0.000  0.230
  3  0.066  0.001  0.004  0.000  0.000  0.000  0.000  0.000  0.000  0.072
  4  0.067  0.002  0.004  0.000  0.000  0.000  0.000  0.000  0.000  0.072
  5  0.066  0.005  0.000  0.000  0.000  0.000  0.000  0.000  0.000  0.072
tot  0.688  0.008  0.008  0.046  0.000  0.000  0.000  0.000  0.000  0.751
 
band   3 # energy  -10.66819452 # occ.  1.00000000
 
ion      s     py     pz     px    dxy    dyz    dz2    dxz    dx2    tot
  1  0.000  0.138  0.148  0.000  0.000  0.000  0.000  0.000  0.000  0.286
  2  0.000  0.037  0.040  0.000  0.000  0.000  0.000  0.000  0.000  0.077
  3  0.021  0.003  0.000  0.000  0.000  0.000  0.000  0.000  0.000  0.024
  4  0.181  0.001  0.004  0.002  0.000  0.000  0.000  0.000  0.000  0.188
  5  0.078  0.002  0.001  0.001  0.000  0.000  0.000  0.000  0.000  0.082
tot  0.279  0.180  0.193  0.003  0.000  0.000  0.000  0.000  0.000  0.655
 
band   4 # energy  -10.64847676 # occ.  1.00000000
 
ion      s     py     pz     px    dxy    dyz    dz2    dxz    dx2    tot
  1  0.000  0.149  0.138  0.000  0.000  0.000  0.000  0.000  0.000  0.287
  2  0.000  0.038  0.036  0.000  0.000  0.000  0.000  0.000  0.000  0.074
  3  0.165  0.000  0.005  0.002  0.000  0.000  0.000  0.000  0.000  0.172
  4  0.006  0.002  0.000  0.000  0.000  0.000  0.000  0.000  0.000  0.008
  5  0.109  0.003  0.001  0.001  0.000  0.000  0.000  0.000  0.000  0.114
tot  0.280  0.193  0.179  0.003  0.000  0.000  0.000  0.000  0.000  0.655
 
band   5 # energy  -10.08302803 # occ.  1.00000000
 
ion      s     py     pz     px    dxy    dyz    dz2    dxz    dx2    tot
  1  0.000  0.000  0.000  0.196  0.000  0.000  0.000  0.000  0.000  0.196
  2  0.023  0.000  0.000  0.426  0.000  0.000  0.000  0.000  0.000  0.449
  3  0.018  0.000  0.001  0.001  0.000  0.000  0.000  0.000  0.000  0.020
  4  0.017  0.000  0.001  0.001  0.000  0.000  0.000  0.000  0.000  0.019
  5  0.018  0.001  0.000  0.001  0.000  0.000  0.000  0.000  0.000  0.020
tot  0.076  0.002  0.002  0.625  0.000  0.000  0.000  0.000  0.000  0.705
 
band   6 # energy   -6.80585580 # occ.  1.03078064
 
ion      s     py     pz     px    dxy    dyz    dz2    dxz    dx2    tot
  1  0.000  0.017  0.019  0.000  0.000  0.000  0.000  0.000  0.000  0.036
  2  0.000  0.264  0.304  0.000  0.000  0.000  0.000  0.000  0.000  0.567
  3  0.006  0.000  0.000  0.000  0.000  0.000  0.000  0.000  0.000  0.006
  4  0.043  0.000  0.001  0.000  0.000  0.000  0.000  0.000  0.000  0.044
  5  0.018  0.000  0.000  0.000  0.000  0.000  0.000  0.000  0.000  0.018
tot  0.067  0.281  0.324  0.000  0.000  0.000  0.000  0.000  0.000  0.672
 
band   7 # energy   -6.73438199 # occ.  0.96921936
 
ion      s     py     pz     px    dxy    dyz    dz2    dxz    dx2    tot
  1  0.000  0.018  0.016  0.000  0.000  0.000  0.000  0.000  0.000  0.035
  2  0.000  0.304  0.264  0.000  0.000  0.000  0.000  0.000  0.000  0.568
  3  0.038  0.000  0.001  0.000  0.000  0.000  0.000  0.000  0.000  0.039
  4  0.001  0.000  0.000  0.000  0.000  0.000  0.000  0.000  0.000  0.001
  5  0.026  0.001  0.000  0.000  0.000  0.000  0.000  0.000  0.000  0.027
tot  0.066  0.324  0.281  0.000  0.000  0.000  0.000  0.000  0.000  0.670
 
band   8 # energy   -0.55293108 # occ.  0.00000000
 
ion      s     py     pz     px    dxy    dyz    dz2    dxz    dx2    tot
  1  0.055  0.000  0.000  0.006  0.000  0.000  0.000  0.000  0.000  0.061
  2  0.001  0.000  0.000  0.039  0.000  0.000  0.000  0.000  0.000  0.039
  3  0.000  0.000  0.002  0.001  0.000  0.000  0.000  0.000  0.000  0.003
  4  0.000  0.001  0.002  0.001  0.000  0.000  0.000  0.000  0.000  0.003
  5  0.000  0.002  0.000  0.001  0.000  0.000  0.000  0.000  0.000  0.003
tot  0.056  0.003  0.003  0.048  0.000  0.000  0.000  0.000  0.000  0.110
 
band   9 # energy   -0.13707958 # occ.  0.00000000
 
ion      s     py     pz     px    dxy    dyz    dz2    dxz    dx2    tot
  1  0.028  0.000  0.000  0.107  0.000  0.000  0.000  0.000  0.000  0.135
  2  0.042  0.000  0.000  0.077  0.000  0.000  0.000  0.000  0.000  0.118
  3  0.000  0.000  0.000  0.003  0.000  0.000  0.000  0.000  0.000  0.003
  4  0.000  0.000  0.000  0.003  0.000  0.000  0.000  0.000  0.000  0.003
  5  0.000  0.000  0.000  0.003  0.000  0.000  0.000  0.000  0.000  0.003
tot  0.070  0.000  0.000  0.194  0.000  0.000  0.000  0.000  0.000  0.264
 
band  10 # energy    0.94536194 # occ.  0.00000000
 
ion      s     py     pz     px    dxy    dyz    dz2    dxz    dx2    tot
  1  0.000  0.033  0.001  0.000  0.000  0.000  0.000  0.000  0.000  0.034
  2  0.000  0.003  0.000  0.000  0.000  0.000  0.000  0.000  0.000  0.003
  3  0.000  0.000  0.001  0.000  0.000  0.000  0.000  0.000  0.000  0.002
  4  0.000  0.000  0.001  0.000  0.000  0.000  0.000  0.000  0.000  0.001
  5  0.000  0.003  0.000  0.001  0.000  0.000  0.000  0.000  0.000  0.004
tot  0.001  0.039  0.003  0.001  0.000  0.000  0.000  0.000  0.000  0.044
 
band  11 # energy    0.97246392 # occ.  0.00000000
 
ion      s     py     pz     px    dxy    dyz    dz2    dxz    dx2    tot
  1  0.000  0.000  0.032  0.000  0.000  0.000  0.000  0.000  0.000  0.032
  2  0.000  0.000  0.004  0.000  0.000  0.000  0.000  0.000  0.000  0.005
  3  0.000  0.001  0.001  0.001  0.000  0.000  0.000  0.000  0.000  0.002
  4  0.000  0.001  0.001  0.001  0.000  0.000  0.000  0.000  0.000  0.003
  5  0.000  0.000  0.000  0.000  0.000  0.000  0.000  0.000  0.000  0.000
tot  0.000  0.002  0.039  0.001  0.000  0.000  0.000  0.000  0.000  0.043
 
band  12 # energy    1.00445913 # occ.  0.00000000
 
ion      s     py     pz     px    dxy    dyz    dz2    dxz    dx2    tot
  1  0.007  0.000  0.000  0.001  0.000  0.000  0.000  0.000  0.000  0.009
  2  0.005  0.000  0.000  0.002  0.000  0.000  0.000  0.000  0.000  0.007
  3  0.001  0.000  0.001  0.000  0.000  0.000  0.000  0.000  0.000  0.002
  4  0.001  0.000  0.001  0.000  0.000  0.000  0.000  0.000  0.000  0.002
  5  0.001  0.002  0.000  0.000  0.000  0.000  0.000  0.000  0.000  0.003
tot  0.015  0.002  0.002  0.004  0.000  0.000  0.000  0.000  0.000  0.023
 
