<?xml version="1.0" encoding="ISO-8859-1"?>
<modeling>
 <generator>
  <i name="program" type="string">vasp </i>
  <i name="version" type="string">5.4.1  </i>
  <i name="subversion" type="string">24Jun15 (build Jul 07 2016 20:05:55) complex                          parallel </i>
  <i name="platform" type="string">IFC91_ompi </i>
  <i name="date" type="string">2017 12 22 </i>
  <i name="time" type="string">15:45:58 </i>
 </generator>
 <incar>
  <i type="string" name="PREC">accurate</i>
  <i type="string" name="ALGO"> Fast</i>
  <i type="int" name="ISPIN">     2</i>
  <i type="int" name="NELM">   200</i>
  <i type="int" name="IBRION">     2</i>
  <i name="EDIFF">      0.00000100</i>
  <i name="EDIFFG">     -0.02000000</i>
  <i type="int" name="NSW">     0</i>
  <i type="int" name="ISIF">     2</i>
  <i name="ENCUT">    300.00000000</i>
  <i name="POTIM">      0.20000000</i>
  <i name="NUPDOWN">      0.00000000</i>
  <v name="MAGMOM">      0.00000000      0.00000000      0.00000000      0.00000000      0.00000000</v>
  <i type="string" name="LREAL"> Auto</i>
  <i type="int" name="ISMEAR">     2</i>
  <i name="SIGMA">      0.10000000</i>
  <i type="logical" name="LWAVE"> F  </i>
  <i type="logical" name="LCHARG"> T  </i>
  <i type="logical" name="LORBIT"> F  </i>
  <i type="logical" name="LAECHG"> T  </i>
  <v type="int" name="KPOINT_BSE">    -1     0     0     0</v>
  <i type="int" name="NELM">   200</i>
  <i type="int" name="IDIPOL">     3</i>
 </incar>
 <kpoints>
  <generation param="Gamma">
   <v type="int" name="divisions">       1        1        1 </v>
   <v name="usershift">      0.00000000       0.00000000       0.00000000 </v>
   <v name="genvec1">      1.00000000       0.00000000       0.00000000 </v>
   <v name="genvec2">      0.00000000       1.00000000       0.00000000 </v>
   <v name="genvec3">      0.00000000       0.00000000       1.00000000 </v>
   <v name="shift">      0.00000000       0.00000000       0.00000000 </v>
  </generation>
  <varray name="kpointlist" >
   <v>       0.00000000       0.00000000       0.00000000 </v>
  </varray>
  <varray name="weights" >
   <v>       1.00000000 </v>
  </varray>
 </kpoints>
 <parameters>
  <separator name="general" >
   <i type="string" name="SYSTEM">unknown system</i>
   <i type="logical" name="LCOMPAT"> F  </i>
  </separator>
  <separator name="electronic" >
   <i type="string" name="PREC">accura</i>
   <i name="ENMAX">    300.00000000</i>
   <i name="ENAUG">    644.87300000</i>
   <i name="EDIFF">      0.00000100</i>
   <i type="int" name="IALGO">    68</i>
   <i type="int" name="IWAVPR">    10</i>
   <i type="int" name="NBANDS">    12</i>
   <i name="NELECT">     14.00000000</i>
   <i type="int" name="TURBO">     0</i>
   <i type="int" name="IRESTART">     0</i>
   <i type="int" name="NREBOOT">     0</i>
   <i type="int" name="NMIN">     0</i>
   <i name="EREF">      0.00000000</i>
   <separator name="electronic smearing" >
    <i type="int" name="ISMEAR">     2</i>
    <i name="SIGMA">      0.10000000</i>
    <i name="KSPACING">      0.50000000</i>
    <i type="logical" name="KGAMMA"> T  </i>
   </separator>
   <separator name="electronic projectors" >
    <i type="logical" name="LREAL"> T  </i>
    <v name="ROPT">     -0.00025000     -0.00025000     -0.00025000</v>
    <i type="int" name="LMAXPAW">  -100</i>
    <i type="int" name="LMAXMIX">     2</i>
    <i type="logical" name="NLSPLINE"> F  </i>
   </separator>
   <separator name="electronic startup" >
    <i type="int" name="ISTART">     0</i>
    <i type="int" name="ICHARG">     2</i>
    <i type="int" name="INIWAV">     1</i>
   </separator>
   <separator name="electronic spin" >
    <i type="int" name="ISPIN">     2</i>
    <i type="logical" name="LNONCOLLINEAR"> F  </i>
    <v name="MAGMOM">      0.00000000      0.00000000      0.00000000      0.00000000      0.00000000</v>
    <i name="NUPDOWN">      0.00000000</i>
    <i type="logical" name="LSORBIT"> F  </i>
    <v name="SAXIS">      0.00000000      0.00000000      1.00000000</v>
    <i type="logical" name="LSPIRAL"> F  </i>
    <v name="QSPIRAL">      0.00000000      0.00000000      0.00000000</v>
    <i type="logical" name="LZEROZ"> F  </i>
   </separator>
   <separator name="electronic exchange-correlation" >
    <i type="logical" name="LASPH"> F  </i>
    <i type="logical" name="LMETAGGA"> F  </i>
   </separator>
   <separator name="electronic convergence" >
    <i type="int" name="NELM">   200</i>
    <i type="int" name="NELMDL">    -5</i>
    <i type="int" name="NELMIN">     2</i>
    <i name="ENINI">    300.00000000</i>
    <separator name="electronic convergence detail" >
     <i type="logical" name="LDIAG"> T  </i>
     <i type="logical" name="LSUBROT"> F  </i>
     <i name="WEIMIN">      0.00000000</i>
     <i name="EBREAK">      0.00000002</i>
     <i name="DEPER">      0.30000000</i>
     <i type="int" name="NRMM">     4</i>
     <i name="TIME">      0.40000000</i>
    </separator>
   </separator>
   <separator name="electronic mixer" >
    <i name="AMIX">      0.40000000</i>
    <i name="BMIX">      1.00000000</i>
    <i name="AMIN">      0.10000000</i>
    <i name="AMIX_MAG">      1.60000000</i>
    <i name="BMIX_MAG">      1.00000000</i>
    <separator name="electronic mixer details" >
     <i type="int" name="IMIX">     4</i>
     <i type="logical" name="MIXFIRST"> F  </i>
     <i type="int" name="MAXMIX">   -45</i>
     <i name="WC">    100.00000000</i>
     <i type="int" name="INIMIX">     1</i>
     <i type="int" name="MIXPRE">     1</i>
     <i type="int" name="MREMOVE">     5</i>
    </separator>
   </separator>
   <separator name="electronic dipolcorrection" >
    <i type="logical" name="LDIPOL"> F  </i>
    <i type="logical" name="LMONO"> F  </i>
    <i type="int" name="IDIPOL">     3</i>
    <i name="EPSILON">      1.00000000</i>
    <v name="DIPOL">   -100.00000000   -100.00000000   -100.00000000</v>
    <i name="EFIELD">      0.00000000</i>
   </separator>
  </separator>
  <separator name="grids" >
   <i type="int" name="NGX">    56</i>
   <i type="int" name="NGY">    56</i>
   <i type="int" name="NGZ">    56</i>
   <i type="int" name="NGXF">   112</i>
   <i type="int" name="NGYF">   112</i>
   <i type="int" name="NGZF">   112</i>
   <i type="logical" name="ADDGRID"> F  </i>
  </separator>
  <separator name="ionic" >
   <i type="int" name="NSW">     0</i>
   <i type="int" name="IBRION">    -1</i>
   <i type="int" name="ISIF">     2</i>
   <i name="PSTRESS">      0.00000000</i>
   <i name="EDIFFG">     -0.02000000</i>
   <i type="int" name="NFREE">     1</i>
   <i name="POTIM">      0.20000000</i>
   <i name="SMASS">     -3.00000000</i>
   <i name="SCALEE">      1.00000000</i>
  </separator>
  <separator name="ionic md" >
   <i name="TEBEG">      0.00010000</i>
   <i name="TEEND">      0.00010000</i>
   <i type="int" name="NBLOCK">     1</i>
   <i type="int" name="KBLOCK">     1</i>
   <i type="int" name="NPACO">   256</i>
   <i name="APACO">     16.00000000</i>
  </separator>
  <separator name="symmetry" >
   <i type="int" name="ISYM">     2</i>
   <i name="SYMPREC">      0.00001000</i>
  </separator>
  <separator name="dos" >
   <i type="logical" name="LORBIT"> F  </i>
   <v name="RWIGS">     -1.00000000     -1.00000000     -1.00000000</v>
   <i type="int" name="NEDOS">   301</i>
   <i name="EMIN">     10.00000000</i>
   <i name="EMAX">    -10.00000000</i>
   <i name="EFERMI">      0.00000000</i>
  </separator>
  <separator name="writing" >
   <i type="int" name="NWRITE">     2</i>
   <i type="logical" name="LWAVE"> F  </i>
   <i type="logical" name="LCHARG"> T  </i>
   <i type="logical" name="LPARD"> F  </i>
   <i type="logical" name="LVTOT"> F  </i>
   <i type="logical" name="LVHAR"> F  </i>
   <i type="logical" name="LELF"> F  </i>
   <i type="logical" name="LOPTICS"> F  </i>
   <v name="STM">      0.00000000      0.00000000      0.00000000      0.00000000      0.00000000      0.00000000      0.00000000</v>
  </separator>
  <separator name="performance" >
   <i type="int" name="NPAR">    12</i>
   <i type="int" name="NSIM">     4</i>
   <i type="int" name="NBLK">    -1</i>
   <i type="logical" name="LPLANE"> T  </i>
   <i type="logical" name="LSCALAPACK"> T  </i>
   <i type="logical" name="LSCAAWARE"> F  </i>
   <i type="logical" name="LSCALU"> F  </i>
   <i type="logical" name="LASYNC"> F  </i>
   <i type="logical" name="LORBITALREAL"> F  </i>
  </separator>
  <separator name="miscellaneous" >
   <i type="int" name="IDIOT">     3</i>
   <i type="logical" name="LMUSIC"> F  </i>
   <v name="POMASS">     12.01100000     35.45300000      1.00000000</v>
   <v name="DARWINR">      0.00000000      0.00000000      0.00000000</v>
   <v name="DARWINV">      1.00000000      1.00000000      1.00000000</v>
   <i type="logical" name="LCORR"> T  </i>
  </separator>
  <i type="logical" name="GGA_COMPAT"> T  </i>
  <i type="logical" name="LBERRY"> F  </i>
  <i type="int" name="ICORELEVEL">     0</i>
  <i type="logical" name="LDAU"> F  </i>
  <i type="int" name="I_CONSTRAINED_M">     0</i>
  <separator name="electronic exchange-correlation" >
   <i type="string" name="GGA">--</i>
   <i type="int" name="VOSKOWN">     0</i>
   <i type="logical" name="LHFCALC"> F  </i>
   <i type="string" name="PRECFOCK"></i>
   <i type="logical" name="LSYMGRAD"> F  </i>
   <i type="logical" name="LHFONE"> F  </i>
   <i type="logical" name="LRHFCALC"> F  </i>
   <i type="logical" name="LTHOMAS"> F  </i>
   <i type="logical" name="LMODELHF"> F  </i>
   <i name="ENCUT4O">     -1.00000000</i>
   <i type="int" name="EXXOEP">     0</i>
   <i type="int" name="FOURORBIT">     0</i>
   <i name="AEXX">      0.00000000</i>
   <i name="HFALPHA">      0.00000000</i>
   <i name="MCALPHA">      0.00000000</i>
   <i name="ALDAX">      1.00000000</i>
   <i name="AGGAX">      1.00000000</i>
   <i name="ALDAC">      1.00000000</i>
   <i name="AGGAC">      1.00000000</i>
   <i type="int" name="NKREDX">     1</i>
   <i type="int" name="NKREDY">     1</i>
   <i type="int" name="NKREDZ">     1</i>
   <i type="logical" name="SHIFTRED"> F  </i>
   <i type="logical" name="ODDONLY"> F  </i>
   <i type="logical" name="EVENONLY"> F  </i>
   <i type="int" name="LMAXFOCK">     0</i>
   <i type="int" name="NMAXFOCKAE">     0</i>
   <i type="logical" name="LFOCKAEDFT"> F  </i>
   <i name="HFSCREEN">      0.00000000</i>
   <i name="HFSCREENC">      0.00000000</i>
   <i type="int" name="NBANDSGWLOW">     0</i>
  </separator>
  <separator name="vdW DFT" >
   <i type="logical" name="LUSE_VDW"> F  </i>
   <i name="Zab_VDW">     -0.84910000</i>
   <i name="PARAM1">      0.12340000</i>
   <i name="PARAM2">      1.00000000</i>
   <i name="PARAM3">      0.00000000</i>
  </separator>
  <separator name="model GW" >
   <i type="int" name="MODEL_GW">     0</i>
   <i name="MODEL_EPS0">    120.00000000</i>
   <i name="MODEL_ALPHA">      1.00000000</i>
  </separator>
  <separator name="linear response parameters" >
   <i type="logical" name="LEPSILON"> F  </i>
   <i type="logical" name="LRPA"> F  </i>
   <i type="logical" name="LNABLA"> F  </i>
   <i type="logical" name="LVEL"> F  </i>
   <i type="int" name="KINTER">     0</i>
   <i name="CSHIFT">      0.10000000</i>
   <i name="OMEGAMAX">     -1.00000000</i>
   <i name="DEG_THRESHOLD">      0.00200000</i>
  </separator>
  <separator name="orbital magnetization" >
   <i type="logical" name="NUCIND"> F  </i>
   <v name="MAGPOS">      0.00000000      0.00000000      0.00000000</v>
   <i type="logical" name="LNICSALL"> T  </i>
   <i type="logical" name="ORBITALMAG"> F  </i>
   <i type="logical" name="LMAGBLOCH"> F  </i>
   <i type="logical" name="LCHIMAG"> F  </i>
   <i type="logical" name="LGAUGE"> T  </i>
   <i type="int" name="MAGATOM">     0</i>
   <v name="MAGDIPOL">      0.00000000      0.00000000      0.00000000</v>
   <v name="AVECCONST">      0.00000000      0.00000000      0.00000000</v>
  </separator>
  <separator name="response functions" >
   <i type="logical" name="LADDER"> F  </i>
   <i type="logical" name="LFXC"> F  </i>
   <i type="logical" name="LHARTREE"> T  </i>
   <i type="int" name="IBSE">     0</i>
   <v type="int" name="KPOINT">    -1     0     0     0</v>
   <i type="logical" name="LTCTE"> F  </i>
   <i type="logical" name="LTETE"> F  </i>
   <i type="logical" name="LTRIPLET"> F  </i>
   <i type="logical" name="LFXCEPS"> F  </i>
   <i type="logical" name="LFXHEG"> F  </i>
   <i type="int" name="NATURALO">     0</i>
   <i type="logical" name="L2ORDER"> F  </i>
   <i type="logical" name="LUSEW"> F  </i>
   <i name="ENCUTGW">     -2.00000000</i>
   <i name="ENCUTGWSOFT">     -2.00000000</i>
   <i name="ENCUTLF">     -1.00000000</i>
   <i type="int" name="LMAXMP2">    -1</i>
   <i name="SCISSOR">      0.00000000</i>
   <i type="int" name="NOMEGA">     0</i>
   <i type="int" name="NOMEGAR">     0</i>
   <i type="int" name="NBANDSGW">    -1</i>
   <i type="int" name="NBANDSO">    -1</i>
   <i type="int" name="NBANDSV">    -1</i>
   <i type="int" name="NELM">   200</i>
   <i type="int" name="NELMHF">     1</i>
   <i type="int" name="DIM">     3</i>
   <i type="int" name="ANTIRES">     0</i>
   <i name="OMEGAMAX">    -30.00000000</i>
   <i name="OMEGAMIN">    -30.00000000</i>
   <i name="OMEGATL">   -200.00000000</i>
   <i type="int" name="OMEGAGRID">     0</i>
   <i name="CSHIFT">     -0.10000000</i>
   <i type="logical" name="SELFENERGY"> F  </i>
   <i type="logical" name="LSPECTRAL"> F  </i>
   <i type="logical" name="LSPECTRALGW"> F  </i>
   <i type="logical" name="LSINGLES"> F  </i>
   <i type="logical" name="LFERMIGW"> F  </i>
   <i type="logical" name="ODDONLYGW"> F  </i>
   <i type="logical" name="EVENONLYGW"> F  </i>
   <i type="int" name="NKREDLFX">     1</i>
   <i type="int" name="NKREDLFY">     1</i>
   <i type="int" name="NKREDLFZ">     1</i>
   <i type="int" name="MAXMEM">  1800</i>
   <i type="int" name="TELESCOPE">     0</i>
   <i type="int" name="TAUPAR">     1</i>
   <i type="int" name="OMEGAPAR">    -1</i>
   <i name="LAMBDA">      1.00000000</i>
  </separator>
  <separator name="External order field" >
   <i name="OFIELD_KAPPA">      0.00000000</i>
   <v name="OFIELD_K">      0.00000000      0.00000000      0.00000000</v>
   <i name="OFIELD_Q6_NEAR">      0.00000000</i>
   <i name="OFIELD_Q6_FAR">      0.00000000</i>
   <i name="OFIELD_A">      0.00000000</i>
  </separator>
  <separator name="solvation model" >
   <i type="logical" name="LSOL"> F  </i>
  </separator>
 </parameters>
 <atominfo>
  <atoms>       5 </atoms>
  <types>       3 </types>
  <array name="atoms" >
   <dimension dim="1">ion</dimension>
   <field type="string">element</field>
   <field type="int">atomtype</field>
   <set>
    <rc><c>C </c><c>   1</c></rc>
    <rc><c>Cl</c><c>   2</c></rc>
    <rc><c>H </c><c>   3</c></rc>
    <rc><c>H </c><c>   3</c></rc>
    <rc><c>H </c><c>   3</c></rc>
   </set>
  </array>
  <array name="atomtypes" >
   <dimension dim="1">type</dimension>
   <field type="int">atomspertype</field>
   <field type="string">element</field>
   <field>mass</field>
   <field>valence</field>
   <field type="string">pseudopotential</field>
   <set>
    <rc><c>   1</c><c>C </c><c>     12.01100000</c><c>      4.00000000</c><c>  PAW_PBE C 08Apr2002                   </c></rc>
    <rc><c>   1</c><c>Cl</c><c>     35.45300000</c><c>      7.00000000</c><c>  PAW_PBE Cl 06Sep2000                  </c></rc>
    <rc><c>   3</c><c>H </c><c>      1.00000000</c><c>      1.00000000</c><c>  PAW_PBE H 15Jun2001                   </c></rc>
   </set>
  </array>
 </atominfo>
 <structure name="initialpos" >
  <crystal>
   <varray name="basis" >
    <v>      10.00000000       0.00000000       0.00000000 </v>
    <v>       0.00000000      10.00000000       0.00000000 </v>
    <v>       0.00000000       0.00000000      10.00000000 </v>
   </varray>
   <i name="volume">   1000.00000000 </i>
   <varray name="rec_basis" >
    <v>       0.10000000       0.00000000       0.00000000 </v>
    <v>       0.00000000       0.10000000       0.00000000 </v>
    <v>       0.00000000       0.00000000       0.10000000 </v>
   </varray>
  </crystal>
  <varray name="positions" >
   <v>       0.42950300       0.47713450       0.49666800 </v>
   <v>       0.60620000       0.47713450       0.49666800 </v>
   <v>       0.39380000       0.43140350       0.58920400 </v>
   <v>       0.39380000       0.41986150       0.41079600 </v>
   <v>       0.39380000       0.58013850       0.49000400 </v>
  </varray>
 </structure>
 <calculation>
  <scstep>
   <time name="dav">    0.20    0.20</time>
   <time name="total">    0.52    0.52</time>
   <energy>
    <i name="alphaZ">      0.81223224 </i>
    <i name="ewald">    145.29194979 </i>
    <i name="hartreedc">   -601.48865606 </i>
    <i name="XCdc">     39.82255589 </i>
    <i name="pawpsdc">    440.19968802 </i>
    <i name="pawaedc">   -440.90946169 </i>
    <i name="eentropy">      0.00379227 </i>
    <i name="bandstr">    -87.63349849 </i>
    <i name="atom">    593.94817731 </i>
    <i name="e_fr_energy">     90.04677927 </i>
    <i name="e_wo_entrp">     90.04298700 </i>
    <i name="e_0_energy">     90.04583120 </i>
   </energy>
  </scstep>
  <scstep>
   <time name="dav">    0.20    0.20</time>
   <time name="total">    0.20    0.20</time>
   <energy>
    <i name="e_fr_energy">      8.16495594 </i>
    <i name="e_wo_entrp">      8.15944983 </i>
    <i name="e_0_energy">      8.16357941 </i>
   </energy>
  </scstep>
  <scstep>
   <time name="dav">    0.20    0.20</time>
   <time name="total">    0.20    0.20</time>
   <energy>
    <i name="e_fr_energy">    -23.24697624 </i>
    <i name="e_wo_entrp">    -23.25606041 </i>
    <i name="e_0_energy">    -23.24924728 </i>
   </energy>
  </scstep>
  <scstep>
   <time name="dav">    0.30    0.30</time>
   <time name="total">    0.30    0.30</time>
   <energy>
    <i name="e_fr_energy">    -24.39494251 </i>
    <i name="e_wo_entrp">    -24.40595503 </i>
    <i name="e_0_energy">    -24.39769564 </i>
   </energy>
  </scstep>
  <scstep>
   <time name="dav">    0.20    0.20</time>
   <time name="total">    0.27    0.27</time>
   <energy>
    <i name="e_fr_energy">    -24.39586629 </i>
    <i name="e_wo_entrp">    -24.40687854 </i>
    <i name="e_0_energy">    -24.39861935 </i>
   </energy>
  </scstep>
  <scstep>
   <time name="diag">    0.04    0.04</time>
   <time name="diis">    0.29    0.30</time>
   <time name="orth">    0.00    0.00</time>
   <time name="total">    0.72    0.72</time>
   <energy>
    <i name="e_fr_energy">    -22.71516149 </i>
    <i name="e_wo_entrp">    -22.72617371 </i>
    <i name="e_0_energy">    -22.71791454 </i>
   </energy>
  </scstep>
  <scstep>
   <time name="diag">    0.04    0.04</time>
   <time name="diis">    0.34    0.34</time>
   <time name="orth">    0.00    0.00</time>
   <time name="total">    0.76    0.76</time>
   <energy>
    <i name="e_fr_energy">    -22.35942721 </i>
    <i name="e_wo_entrp">    -22.37043992 </i>
    <i name="e_0_energy">    -22.36218039 </i>
   </energy>
  </scstep>
  <scstep>
   <time name="diag">    0.04    0.04</time>
   <time name="diis">    0.34    0.34</time>
   <time name="orth">    0.00    0.00</time>
   <time name="total">    0.76    0.76</time>
   <energy>
    <i name="e_fr_energy">    -22.29306027 </i>
    <i name="e_wo_entrp">    -22.30408192 </i>
    <i name="e_0_energy">    -22.29581568 </i>
   </energy>
  </scstep>
  <scstep>
   <time name="diag">    0.04    0.04</time>
   <time name="diis">    0.29    0.30</time>
   <time name="orth">    0.00    0.00</time>
   <time name="total">    0.72    0.72</time>
   <energy>
    <i name="e_fr_energy">    -22.28906170 </i>
    <i name="e_wo_entrp">    -22.30049350 </i>
    <i name="e_0_energy">    -22.29191965 </i>
   </energy>
  </scstep>
  <scstep>
   <time name="diag">    0.04    0.04</time>
   <time name="diis">    0.32    0.32</time>
   <time name="orth">    0.00    0.00</time>
   <time name="total">    0.75    0.75</time>
   <energy>
    <i name="e_fr_energy">    -22.29187146 </i>
    <i name="e_wo_entrp">    -22.30399661 </i>
    <i name="e_0_energy">    -22.29490274 </i>
   </energy>
  </scstep>
  <scstep>
   <time name="diag">    0.04    0.04</time>
   <time name="diis">    0.31    0.31</time>
   <time name="orth">    0.00    0.00</time>
   <time name="total">    0.73    0.73</time>
   <energy>
    <i name="e_fr_energy">    -22.28948697 </i>
    <i name="e_wo_entrp">    -22.29335576 </i>
    <i name="e_0_energy">    -22.29045417 </i>
   </energy>
  </scstep>
  <scstep>
   <time name="diag">    0.04    0.04</time>
   <time name="diis">    0.24    0.24</time>
   <time name="orth">    0.00    0.00</time>
   <time name="total">    0.66    0.66</time>
   <energy>
    <i name="e_fr_energy">    -22.29133709 </i>
    <i name="e_wo_entrp">    -22.29522341 </i>
    <i name="e_0_energy">    -22.29230867 </i>
   </energy>
  </scstep>
  <scstep>
   <time name="diag">    0.04    0.04</time>
   <time name="diis">    0.23    0.23</time>
   <time name="orth">    0.00    0.00</time>
   <time name="total">    0.66    0.66</time>
   <energy>
    <i name="e_fr_energy">    -22.29733687 </i>
    <i name="e_wo_entrp">    -22.30991800 </i>
    <i name="e_0_energy">    -22.30048215 </i>
   </energy>
  </scstep>
  <scstep>
   <time name="diag">    0.04    0.04</time>
   <time name="diis">    0.25    0.25</time>
   <time name="orth">    0.00    0.00</time>
   <time name="total">    0.68    0.68</time>
   <energy>
    <i name="e_fr_energy">    -22.30071057 </i>
    <i name="e_wo_entrp">    -22.31279349 </i>
    <i name="e_0_energy">    -22.30373130 </i>
   </energy>
  </scstep>
  <scstep>
   <time name="diag">    0.04    0.04</time>
   <time name="diis">    0.24    0.24</time>
   <time name="orth">    0.00    0.00</time>
   <time name="total">    0.66    0.67</time>
   <energy>
    <i name="e_fr_energy">    -22.30260669 </i>
    <i name="e_wo_entrp">    -22.30896813 </i>
    <i name="e_0_energy">    -22.30419705 </i>
   </energy>
  </scstep>
  <scstep>
   <time name="diag">    0.04    0.04</time>
   <time name="diis">    0.29    0.29</time>
   <time name="orth">    0.00    0.00</time>
   <time name="total">    0.71    0.71</time>
   <energy>
    <i name="e_fr_energy">    -22.30471390 </i>
    <i name="e_wo_entrp">    -22.31568780 </i>
    <i name="e_0_energy">    -22.30745738 </i>
   </energy>
  </scstep>
  <scstep>
   <time name="diag">    0.04    0.04</time>
   <time name="diis">    0.34    0.34</time>
   <time name="orth">    0.00    0.00</time>
   <time name="total">    0.77    0.77</time>
   <energy>
    <i name="e_fr_energy">    -22.30467239 </i>
    <i name="e_wo_entrp">    -22.31583878 </i>
    <i name="e_0_energy">    -22.30746398 </i>
   </energy>
  </scstep>
  <scstep>
   <time name="diag">    0.04    0.04</time>
   <time name="diis">    0.31    0.31</time>
   <time name="orth">    0.00    0.00</time>
   <time name="total">    0.73    0.74</time>
   <energy>
    <i name="e_fr_energy">    -22.30507852 </i>
    <i name="e_wo_entrp">    -22.31512129 </i>
    <i name="e_0_energy">    -22.30758921 </i>
   </energy>
  </scstep>
  <scstep>
   <time name="diag">    0.04    0.04</time>
   <time name="diis">    0.22    0.22</time>
   <time name="orth">    0.00    0.00</time>
   <time name="total">    0.65    0.65</time>
   <energy>
    <i name="e_fr_energy">    -22.30594388 </i>
    <i name="e_wo_entrp">    -22.31612533 </i>
    <i name="e_0_energy">    -22.30848924 </i>
   </energy>
  </scstep>
  <scstep>
   <time name="diag">    0.04    0.04</time>
   <time name="diis">    0.27    0.27</time>
   <time name="orth">    0.00    0.00</time>
   <time name="total">    0.69    0.69</time>
   <energy>
    <i name="e_fr_energy">    -22.30620053 </i>
    <i name="e_wo_entrp">    -22.31594299 </i>
    <i name="e_0_energy">    -22.30863614 </i>
   </energy>
  </scstep>
  <scstep>
   <time name="diag">    0.04    0.04</time>
   <time name="diis">    0.22    0.23</time>
   <time name="orth">    0.00    0.00</time>
   <time name="total">    0.65    0.65</time>
   <energy>
    <i name="e_fr_energy">    -22.30645152 </i>
    <i name="e_wo_entrp">    -22.31647183 </i>
    <i name="e_0_energy">    -22.30895659 </i>
   </energy>
  </scstep>
  <scstep>
   <time name="diag">    0.04    0.04</time>
   <time name="diis">    0.33    0.33</time>
   <time name="orth">    0.00    0.00</time>
   <time name="total">    0.75    0.75</time>
   <energy>
    <i name="e_fr_energy">    -22.30650423 </i>
    <i name="e_wo_entrp">    -22.31687838 </i>
    <i name="e_0_energy">    -22.30909777 </i>
   </energy>
  </scstep>
  <scstep>
   <time name="diag">    0.04    0.04</time>
   <time name="diis">    0.26    0.27</time>
   <time name="orth">    0.00    0.00</time>
   <time name="total">    0.69    0.70</time>
   <energy>
    <i name="e_fr_energy">    -22.30655308 </i>
    <i name="e_wo_entrp">    -22.31664604 </i>
    <i name="e_0_energy">    -22.30907632 </i>
   </energy>
  </scstep>
  <scstep>
   <time name="diag">    0.04    0.04</time>
   <time name="diis">    0.22    0.22</time>
   <time name="orth">    0.00    0.00</time>
   <time name="total">    0.65    0.65</time>
   <energy>
    <i name="e_fr_energy">    -22.30657803 </i>
    <i name="e_wo_entrp">    -22.31661534 </i>
    <i name="e_0_energy">    -22.30908735 </i>
   </energy>
  </scstep>
  <scstep>
   <time name="diag">    0.04    0.04</time>
   <time name="diis">    0.25    0.25</time>
   <time name="orth">    0.00    0.00</time>
   <time name="total">    0.68    0.68</time>
   <energy>
    <i name="e_fr_energy">    -22.30658271 </i>
    <i name="e_wo_entrp">    -22.31673851 </i>
    <i name="e_0_energy">    -22.30912166 </i>
   </energy>
  </scstep>
  <scstep>
   <time name="diag">    0.04    0.04</time>
   <time name="diis">    0.21    0.21</time>
   <time name="orth">    0.00    0.00</time>
   <time name="total">    0.65    0.65</time>
   <energy>
    <i name="e_fr_energy">    -22.30658902 </i>
    <i name="e_wo_entrp">    -22.31669486 </i>
    <i name="e_0_energy">    -22.30911548 </i>
   </energy>
  </scstep>
  <scstep>
   <time name="diag">    0.04    0.04</time>
   <time name="diis">    0.27    0.27</time>
   <time name="orth">    0.00    0.00</time>
   <time name="total">    0.70    0.70</time>
   <energy>
    <i name="e_fr_energy">    -22.30659018 </i>
    <i name="e_wo_entrp">    -22.31672718 </i>
    <i name="e_0_energy">    -22.30912443 </i>
   </energy>
  </scstep>
  <scstep>
   <time name="diag">    0.04    0.04</time>
   <time name="diis">    0.26    0.26</time>
   <time name="orth">    0.00    0.00</time>
   <time name="total">    0.62    0.62</time>
   <energy>
    <i name="alphaZ">      0.81223224 </i>
    <i name="ewald">    145.29194979 </i>
    <i name="hartreedc">   -638.47161960 </i>
    <i name="XCdc">     42.14861220 </i>
    <i name="pawpsdc">    991.15665778 </i>
    <i name="pawaedc">   -992.11051970 </i>
    <i name="eentropy">      0.01012135 </i>
    <i name="bandstr">   -165.09220216 </i>
    <i name="atom">    593.94817731 </i>
    <i name="e_fr_energy">    -22.30659081 </i>
    <i name="e_wo_entrp">    -22.31671216 </i>
    <i name="e_0_energy">    -22.30912115 </i>
   </energy>
  </scstep>
  <dipole>
   <v name="dipole">      0.00000000       0.00000000      -0.00001086 </v>
   <i name="Tr[quadrupol]">   -531.07964901 </i>
   <i name="Echarged">      0.00000000 </i>
   <i name="Edipol_quadrupol">      0.00000000 </i>
   <i name="Eion">      0.00000000 </i>
  </dipole>
  <structure>
   <crystal>
    <varray name="basis" >
     <v>      10.00000000       0.00000000       0.00000000 </v>
     <v>       0.00000000      10.00000000       0.00000000 </v>
     <v>       0.00000000       0.00000000      10.00000000 </v>
    </varray>
    <i name="volume">   1000.00000000 </i>
    <varray name="rec_basis" >
     <v>       0.10000000       0.00000000       0.00000000 </v>
     <v>       0.00000000       0.10000000       0.00000000 </v>
     <v>       0.00000000       0.00000000       0.10000000 </v>
    </varray>
   </crystal>
   <varray name="positions" >
    <v>       0.42950300       0.47713450       0.49666800 </v>
    <v>       0.60620000       0.47713450       0.49666800 </v>
    <v>       0.39380000       0.43140350       0.58920400 </v>
    <v>       0.39380000       0.41986150       0.41079600 </v>
    <v>       0.39380000       0.58013850       0.49000400 </v>
   </varray>
  </structure>
  <varray name="forces" >
   <v>      -0.06872071      -0.00035999      -0.00275497 </v>
   <v>       0.28965976      -0.00111979      -0.00041104 </v>
   <v>      -0.07244779      -0.12886321       0.26308060 </v>
   <v>      -0.07166903      -0.16036815      -0.24144130 </v>
   <v>      -0.07682223       0.29071113      -0.01847328 </v>
  </varray>
  <varray name="stress" >
   <v>      -1.62622404       0.00579107       0.00151575 </v>
   <v>       0.00579105      -2.55960951       0.00296694 </v>
   <v>       0.00151576       0.00296698      -2.58105633 </v>
  </varray>
  <energy>
   <i name="e_fr_energy">    -22.30659081 </i>
   <i name="e_wo_entrp">    -22.30912115 </i>
   <i name="e_0_energy">      0.01012135 </i>
  </energy>
  <time name="totalsc">   21.01   21.38</time>
  <eigenvalues>
   <array>
    <dimension dim="1">band</dimension>
    <dimension dim="2">kpoint</dimension>
    <dimension dim="3">spin</dimension>
    <field>eigene</field>
    <field>occ</field>
    <set>
     <set comment="spin 1">
      <set comment="kpoint 1">
       <r>  -21.1402    1.0000 </r>
       <r>  -16.4638    1.0000 </r>
       <r>  -10.6681    1.0000 </r>
       <r>  -10.6486    1.0000 </r>
       <r>  -10.0830    1.0000 </r>
       <r>   -6.8059    1.0308 </r>
       <r>   -6.7344    0.9692 </r>
       <r>   -0.5529    0.0000 </r>
       <r>   -0.1371    0.0000 </r>
       <r>    0.9437    0.0000 </r>
       <r>    0.9745    0.0000 </r>
       <r>    1.0045    0.0000 </r>
      </set>
     </set>
     <set comment="spin 2">
      <set comment="kpoint 1">
       <r>  -21.1402    1.0000 </r>
       <r>  -16.4638    1.0000 </r>
       <r>  -10.6682    1.0000 </r>
       <r>  -10.6485    1.0000 </r>
       <r>  -10.0830    1.0000 </r>
       <r>   -6.8059    1.0308 </r>
       <r>   -6.7344    0.9692 </r>
       <r>   -0.5529    0.0000 </r>
       <r>   -0.1371    0.0000 </r>
       <r>    0.9454    0.0000 </r>
       <r>    0.9725    0.0000 </r>
       <r>    1.0045    0.0000 </r>
      </set>
     </set>
    </set>
   </array>
  </eigenvalues>
  <separator name="orbital magnetization" >
   <v name="MAGDIPOLOUT">      0.00000000      0.00000000      0.00000000</v>
  </separator>
  <dos>
   <i name="efermi">     -6.67849263 </i>
   <total>
    <array>
     <dimension dim="1">gridpoints</dimension>
     <dimension dim="2">spin</dimension>
     <field>energy</field>
     <field>total</field>
     <field>integrated</field>
     <set>
      <set comment="spin 1">
       <r>   -22.2474     0.0000     0.0000 </r>
       <r>   -22.1662     0.0000     0.0000 </r>
       <r>   -22.0850     0.0000     0.0000 </r>
       <r>   -22.0038     0.0000     0.0000 </r>
       <r>   -21.9226     0.0000     0.0000 </r>
       <r>   -21.8414     0.0000     0.0000 </r>
       <r>   -21.7603     0.0000     0.0000 </r>
       <r>   -21.6791     0.0000     0.0000 </r>
       <r>   -21.5979     0.0000     0.0000 </r>
       <r>   -21.5167     0.0001     0.0000 </r>
       <r>   -21.4355     0.0090     0.0007 </r>
       <r>   -21.3543     0.1036     0.0092 </r>
       <r>   -21.2731    -0.7410    -0.0510 </r>
       <r>   -21.1919     1.9105     0.1041 </r>
       <r>   -21.1107    18.2291     1.5843 </r>
       <r>   -21.0295     6.2417     2.0911 </r>
       <r>   -20.9483    -1.2341     1.9909 </r>
       <r>   -20.8671     0.0895     1.9981 </r>
       <r>   -20.7859     0.0226     2.0000 </r>
       <r>   -20.7047     0.0004     2.0000 </r>
       <r>   -20.6235     0.0000     2.0000 </r>
       <r>   -20.5423     0.0000     2.0000 </r>
       <r>   -20.4611     0.0000     2.0000 </r>
       <r>   -20.3799     0.0000     2.0000 </r>
       <r>   -20.2987     0.0000     2.0000 </r>
       <r>   -20.2175     0.0000     2.0000 </r>
       <r>   -20.1363     0.0000     2.0000 </r>
       <r>   -20.0551     0.0000     2.0000 </r>
       <r>   -19.9739     0.0000     2.0000 </r>
       <r>   -19.8927     0.0000     2.0000 </r>
       <r>   -19.8115     0.0000     2.0000 </r>
       <r>   -19.7303     0.0000     2.0000 </r>
       <r>   -19.6491     0.0000     2.0000 </r>
       <r>   -19.5679     0.0000     2.0000 </r>
       <r>   -19.4867     0.0000     2.0000 </r>
       <r>   -19.4055     0.0000     2.0000 </r>
       <r>   -19.3243     0.0000     2.0000 </r>
       <r>   -19.2431     0.0000     2.0000 </r>
       <r>   -19.1619     0.0000     2.0000 </r>
       <r>   -19.0807     0.0000     2.0000 </r>
       <r>   -18.9995     0.0000     2.0000 </r>
       <r>   -18.9184     0.0000     2.0000 </r>
       <r>   -18.8372     0.0000     2.0000 </r>
       <r>   -18.7560     0.0000     2.0000 </r>
       <r>   -18.6748     0.0000     2.0000 </r>
       <r>   -18.5936     0.0000     2.0000 </r>
       <r>   -18.5124     0.0000     2.0000 </r>
       <r>   -18.4312     0.0000     2.0000 </r>
       <r>   -18.3500     0.0000     2.0000 </r>
       <r>   -18.2688     0.0000     2.0000 </r>
       <r>   -18.1876     0.0000     2.0000 </r>
       <r>   -18.1064     0.0000     2.0000 </r>
       <r>   -18.0252     0.0000     2.0000 </r>
       <r>   -17.9440     0.0000     2.0000 </r>
       <r>   -17.8628     0.0000     2.0000 </r>
       <r>   -17.7816     0.0000     2.0000 </r>
       <r>   -17.7004     0.0000     2.0000 </r>
       <r>   -17.6192     0.0000     2.0000 </r>
       <r>   -17.5380     0.0000     2.0000 </r>
       <r>   -17.4568     0.0000     2.0000 </r>
       <r>   -17.3756     0.0000     2.0000 </r>
       <r>   -17.2944     0.0000     2.0000 </r>
       <r>   -17.2132     0.0000     2.0000 </r>
       <r>   -17.1320     0.0000     2.0000 </r>
       <r>   -17.0508     0.0000     2.0000 </r>
       <r>   -16.9696     0.0000     2.0000 </r>
       <r>   -16.8884     0.0000     2.0000 </r>
       <r>   -16.8072     0.0008     2.0001 </r>
       <r>   -16.7260     0.0335     2.0028 </r>
       <r>   -16.6448     0.0419     2.0062 </r>
       <r>   -16.5636    -1.3349     1.8978 </r>
       <r>   -16.4824     8.8383     2.6154 </r>
       <r>   -16.4012    16.9824     3.9944 </r>
       <r>   -16.3200     0.4588     4.0316 </r>
       <r>   -16.2388    -0.4848     3.9922 </r>
       <r>   -16.1576     0.0900     3.9996 </r>
       <r>   -16.0765     0.0055     4.0000 </r>
       <r>   -15.9953     0.0000     4.0000 </r>
       <r>   -15.9141     0.0000     4.0000 </r>
       <r>   -15.8329     0.0000     4.0000 </r>
       <r>   -15.7517     0.0000     4.0000 </r>
       <r>   -15.6705     0.0000     4.0000 </r>
       <r>   -15.5893     0.0000     4.0000 </r>
       <r>   -15.5081     0.0000     4.0000 </r>
       <r>   -15.4269     0.0000     4.0000 </r>
       <r>   -15.3457     0.0000     4.0000 </r>
       <r>   -15.2645     0.0000     4.0000 </r>
       <r>   -15.1833     0.0000     4.0000 </r>
       <r>   -15.1021     0.0000     4.0000 </r>
       <r>   -15.0209     0.0000     4.0000 </r>
       <r>   -14.9397     0.0000     4.0000 </r>
       <r>   -14.8585     0.0000     4.0000 </r>
       <r>   -14.7773     0.0000     4.0000 </r>
       <r>   -14.6961     0.0000     4.0000 </r>
       <r>   -14.6149     0.0000     4.0000 </r>
       <r>   -14.5337     0.0000     4.0000 </r>
       <r>   -14.4525     0.0000     4.0000 </r>
       <r>   -14.3713     0.0000     4.0000 </r>
       <r>   -14.2901     0.0000     4.0000 </r>
       <r>   -14.2089     0.0000     4.0000 </r>
       <r>   -14.1277     0.0000     4.0000 </r>
       <r>   -14.0465     0.0000     4.0000 </r>
       <r>   -13.9653     0.0000     4.0000 </r>
       <r>   -13.8841     0.0000     4.0000 </r>
       <r>   -13.8029     0.0000     4.0000 </r>
       <r>   -13.7217     0.0000     4.0000 </r>
       <r>   -13.6405     0.0000     4.0000 </r>
       <r>   -13.5593     0.0000     4.0000 </r>
       <r>   -13.4781     0.0000     4.0000 </r>
       <r>   -13.3969     0.0000     4.0000 </r>
       <r>   -13.3157     0.0000     4.0000 </r>
       <r>   -13.2346     0.0000     4.0000 </r>
       <r>   -13.1534     0.0000     4.0000 </r>
       <r>   -13.0722     0.0000     4.0000 </r>
       <r>   -12.9910     0.0000     4.0000 </r>
       <r>   -12.9098     0.0000     4.0000 </r>
       <r>   -12.8286     0.0000     4.0000 </r>
       <r>   -12.7474     0.0000     4.0000 </r>
       <r>   -12.6662     0.0000     4.0000 </r>
       <r>   -12.5850     0.0000     4.0000 </r>
       <r>   -12.5038     0.0000     4.0000 </r>
       <r>   -12.4226     0.0000     4.0000 </r>
       <r>   -12.3414     0.0000     4.0000 </r>
       <r>   -12.2602     0.0000     4.0000 </r>
       <r>   -12.1790     0.0000     4.0000 </r>
       <r>   -12.0978     0.0000     4.0000 </r>
       <r>   -12.0166     0.0000     4.0000 </r>
       <r>   -11.9354     0.0000     4.0000 </r>
       <r>   -11.8542     0.0000     4.0000 </r>
       <r>   -11.7730     0.0000     4.0000 </r>
       <r>   -11.6918     0.0000     4.0000 </r>
       <r>   -11.6106     0.0000     4.0000 </r>
       <r>   -11.5294     0.0000     4.0000 </r>
       <r>   -11.4482     0.0000     4.0000 </r>
       <r>   -11.3670     0.0000     4.0000 </r>
       <r>   -11.2858     0.0000     4.0000 </r>
       <r>   -11.2046     0.0000     4.0000 </r>
       <r>   -11.1234     0.0000     4.0000 </r>
       <r>   -11.0422     0.0001     4.0000 </r>
       <r>   -10.9610     0.0140     4.0011 </r>
       <r>   -10.8798     0.1853     4.0162 </r>
       <r>   -10.7986    -1.1502     3.9228 </r>
       <r>   -10.7174     2.1085     4.0940 </r>
       <r>   -10.6362    34.3312     6.8816 </r>
       <r>   -10.5550    16.1198     8.1905 </r>
       <r>   -10.4738    -2.5003     7.9875 </r>
       <r>   -10.3927     0.0956     7.9952 </r>
       <r>   -10.3115     0.1465     8.0071 </r>
       <r>   -10.2303    -0.4079     7.9740 </r>
       <r>   -10.1491     0.0906     7.9814 </r>
       <r>   -10.0679    16.4271     9.3152 </r>
       <r>    -9.9867     9.7053    10.1032 </r>
       <r>    -9.9055    -1.3281     9.9954 </r>
       <r>    -9.8243     0.0181     9.9969 </r>
       <r>    -9.7431     0.0377     9.9999 </r>
       <r>    -9.6619     0.0009    10.0000 </r>
       <r>    -9.5807     0.0000    10.0000 </r>
       <r>    -9.4995     0.0000    10.0000 </r>
       <r>    -9.4183     0.0000    10.0000 </r>
       <r>    -9.3371     0.0000    10.0000 </r>
       <r>    -9.2559     0.0000    10.0000 </r>
       <r>    -9.1747     0.0000    10.0000 </r>
       <r>    -9.0935     0.0000    10.0000 </r>
       <r>    -9.0123     0.0000    10.0000 </r>
       <r>    -8.9311     0.0000    10.0000 </r>
       <r>    -8.8499     0.0000    10.0000 </r>
       <r>    -8.7687     0.0000    10.0000 </r>
       <r>    -8.6875     0.0000    10.0000 </r>
       <r>    -8.6063     0.0000    10.0000 </r>
       <r>    -8.5251     0.0000    10.0000 </r>
       <r>    -8.4439     0.0000    10.0000 </r>
       <r>    -8.3627     0.0000    10.0000 </r>
       <r>    -8.2815     0.0000    10.0000 </r>
       <r>    -8.2003     0.0000    10.0000 </r>
       <r>    -8.1191     0.0000    10.0000 </r>
       <r>    -8.0379     0.0000    10.0000 </r>
       <r>    -7.9567     0.0000    10.0000 </r>
       <r>    -7.8755     0.0000    10.0000 </r>
       <r>    -7.7943     0.0000    10.0000 </r>
       <r>    -7.7131     0.0000    10.0000 </r>
       <r>    -7.6319     0.0000    10.0000 </r>
       <r>    -7.5508     0.0000    10.0000 </r>
       <r>    -7.4696     0.0000    10.0000 </r>
       <r>    -7.3884     0.0000    10.0000 </r>
       <r>    -7.3072     0.0000    10.0000 </r>
       <r>    -7.2260     0.0000    10.0000 </r>
       <r>    -7.1448     0.0010    10.0001 </r>
       <r>    -7.0636     0.0407    10.0034 </r>
       <r>    -6.9824     0.0627    10.0085 </r>
       <r>    -6.9012    -1.4076     9.8942 </r>
       <r>    -6.8200     8.8242    10.6107 </r>
       <r>    -6.7388    28.5930    12.9324 </r>
       <r>    -6.6576    14.3380    14.0966 </r>
       <r>    -6.5764    -1.1360    14.0043 </r>
       <r>    -6.4952    -0.1269    13.9940 </r>
       <r>    -6.4140     0.0710    13.9998 </r>
       <r>    -6.3328     0.0027    14.0000 </r>
       <r>    -6.2516     0.0000    14.0000 </r>
       <r>    -6.1704     0.0000    14.0000 </r>
       <r>    -6.0892     0.0000    14.0000 </r>
       <r>    -6.0080     0.0000    14.0000 </r>
       <r>    -5.9268     0.0000    14.0000 </r>
       <r>    -5.8456     0.0000    14.0000 </r>
       <r>    -5.7644     0.0000    14.0000 </r>
       <r>    -5.6832     0.0000    14.0000 </r>
       <r>    -5.6020     0.0000    14.0000 </r>
       <r>    -5.5208     0.0000    14.0000 </r>
       <r>    -5.4396     0.0000    14.0000 </r>
       <r>    -5.3584     0.0000    14.0000 </r>
       <r>    -5.2772     0.0000    14.0000 </r>
       <r>    -5.1960     0.0000    14.0000 </r>
       <r>    -5.1148     0.0000    14.0000 </r>
       <r>    -5.0336     0.0000    14.0000 </r>
       <r>    -4.9524     0.0000    14.0000 </r>
       <r>    -4.8712     0.0000    14.0000 </r>
       <r>    -4.7900     0.0000    14.0000 </r>
       <r>    -4.7089     0.0000    14.0000 </r>
       <r>    -4.6277     0.0000    14.0000 </r>
       <r>    -4.5465     0.0000    14.0000 </r>
       <r>    -4.4653     0.0000    14.0000 </r>
       <r>    -4.3841     0.0000    14.0000 </r>
       <r>    -4.3029     0.0000    14.0000 </r>
       <r>    -4.2217     0.0000    14.0000 </r>
       <r>    -4.1405     0.0000    14.0000 </r>
       <r>    -4.0593     0.0000    14.0000 </r>
       <r>    -3.9781     0.0000    14.0000 </r>
       <r>    -3.8969     0.0000    14.0000 </r>
       <r>    -3.8157     0.0000    14.0000 </r>
       <r>    -3.7345     0.0000    14.0000 </r>
       <r>    -3.6533     0.0000    14.0000 </r>
       <r>    -3.5721     0.0000    14.0000 </r>
       <r>    -3.4909     0.0000    14.0000 </r>
       <r>    -3.4097     0.0000    14.0000 </r>
       <r>    -3.3285     0.0000    14.0000 </r>
       <r>    -3.2473     0.0000    14.0000 </r>
       <r>    -3.1661     0.0000    14.0000 </r>
       <r>    -3.0849     0.0000    14.0000 </r>
       <r>    -3.0037     0.0000    14.0000 </r>
       <r>    -2.9225     0.0000    14.0000 </r>
       <r>    -2.8413     0.0000    14.0000 </r>
       <r>    -2.7601     0.0000    14.0000 </r>
       <r>    -2.6789     0.0000    14.0000 </r>
       <r>    -2.5977     0.0000    14.0000 </r>
       <r>    -2.5165     0.0000    14.0000 </r>
       <r>    -2.4353     0.0000    14.0000 </r>
       <r>    -2.3541     0.0000    14.0000 </r>
       <r>    -2.2729     0.0000    14.0000 </r>
       <r>    -2.1917     0.0000    14.0000 </r>
       <r>    -2.1105     0.0000    14.0000 </r>
       <r>    -2.0293     0.0000    14.0000 </r>
       <r>    -1.9481     0.0000    14.0000 </r>
       <r>    -1.8670     0.0000    14.0000 </r>
       <r>    -1.7858     0.0000    14.0000 </r>
       <r>    -1.7046     0.0000    14.0000 </r>
       <r>    -1.6234     0.0000    14.0000 </r>
       <r>    -1.5422     0.0000    14.0000 </r>
       <r>    -1.4610     0.0000    14.0000 </r>
       <r>    -1.3798     0.0000    14.0000 </r>
       <r>    -1.2986     0.0000    14.0000 </r>
       <r>    -1.2174     0.0000    14.0000 </r>
       <r>    -1.1362     0.0000    14.0000 </r>
       <r>    -1.0550     0.0000    14.0000 </r>
       <r>    -0.9738     0.0000    14.0000 </r>
       <r>    -0.8926     0.0009    14.0001 </r>
       <r>    -0.8114     0.0380    14.0032 </r>
       <r>    -0.7302     0.0163    14.0045 </r>
       <r>    -0.6490    -1.3267    13.8968 </r>
       <r>    -0.5678     9.7650    14.6896 </r>
       <r>    -0.4866    16.3871    16.0202 </r>
       <r>    -0.4054     0.0941    16.0279 </r>
       <r>    -0.3242    -0.3313    16.0010 </r>
       <r>    -0.2430    -1.2138    15.9024 </r>
       <r>    -0.1618     7.3646    16.5004 </r>
       <r>    -0.0806    17.7741    17.9436 </r>
       <r>     0.0006     1.2139    18.0422 </r>
       <r>     0.0818    -0.6251    17.9914 </r>
       <r>     0.1630     0.0985    17.9994 </r>
       <r>     0.2442     0.0073    18.0000 </r>
       <r>     0.3254     0.0001    18.0000 </r>
       <r>     0.4066     0.0000    18.0000 </r>
       <r>     0.4878     0.0000    18.0000 </r>
       <r>     0.5690     0.0001    18.0000 </r>
       <r>     0.6502     0.0123    18.0010 </r>
       <r>     0.7314     0.1878    18.0163 </r>
       <r>     0.8126    -0.8439    17.9477 </r>
       <r>     0.8938    -0.0009    17.9477 </r>
       <r>     0.9749    38.0655    21.0385 </r>
       <r>     1.0561    37.3489    24.0711 </r>
       <r>     1.1373    -0.2862    24.0479 </r>
       <r>     1.2185    -0.7845    23.9842 </r>
       <r>     1.2997     0.1836    23.9991 </r>
       <r>     1.3809     0.0115    24.0000 </r>
       <r>     1.4621     0.0001    24.0000 </r>
       <r>     1.5433     0.0000    24.0000 </r>
       <r>     1.6245     0.0000    24.0000 </r>
       <r>     1.7057     0.0000    24.0000 </r>
       <r>     1.7869     0.0000    24.0000 </r>
       <r>     1.8681     0.0000    24.0000 </r>
       <r>     1.9493     0.0000    24.0000 </r>
       <r>     2.0305     0.0000    24.0000 </r>
       <r>     2.1117     0.0000    24.0000 </r>
      </set>
      <set comment="spin 2">
       <r>   -22.2474     0.0000     0.0000 </r>
       <r>   -22.1662     0.0000     0.0000 </r>
       <r>   -22.0850     0.0000     0.0000 </r>
       <r>   -22.0038     0.0000     0.0000 </r>
       <r>   -21.9226     0.0000     0.0000 </r>
       <r>   -21.8414     0.0000     0.0000 </r>
       <r>   -21.7603     0.0000     0.0000 </r>
       <r>   -21.6791     0.0000     0.0000 </r>
       <r>   -21.5979     0.0000     0.0000 </r>
       <r>   -21.5167     0.0001     0.0000 </r>
       <r>   -21.4355     0.0090     0.0007 </r>
       <r>   -21.3543     0.1036     0.0092 </r>
       <r>   -21.2731    -0.7410    -0.0510 </r>
       <r>   -21.1919     1.9104     0.1041 </r>
       <r>   -21.1107    18.2290     1.5842 </r>
       <r>   -21.0295     6.2419     2.0911 </r>
       <r>   -20.9483    -1.2342     1.9909 </r>
       <r>   -20.8671     0.0895     1.9981 </r>
       <r>   -20.7859     0.0226     2.0000 </r>
       <r>   -20.7047     0.0004     2.0000 </r>
       <r>   -20.6235     0.0000     2.0000 </r>
       <r>   -20.5423     0.0000     2.0000 </r>
       <r>   -20.4611     0.0000     2.0000 </r>
       <r>   -20.3799     0.0000     2.0000 </r>
       <r>   -20.2987     0.0000     2.0000 </r>
       <r>   -20.2175     0.0000     2.0000 </r>
       <r>   -20.1363     0.0000     2.0000 </r>
       <r>   -20.0551     0.0000     2.0000 </r>
       <r>   -19.9739     0.0000     2.0000 </r>
       <r>   -19.8927     0.0000     2.0000 </r>
       <r>   -19.8115     0.0000     2.0000 </r>
       <r>   -19.7303     0.0000     2.0000 </r>
       <r>   -19.6491     0.0000     2.0000 </r>
       <r>   -19.5679     0.0000     2.0000 </r>
       <r>   -19.4867     0.0000     2.0000 </r>
       <r>   -19.4055     0.0000     2.0000 </r>
       <r>   -19.3243     0.0000     2.0000 </r>
       <r>   -19.2431     0.0000     2.0000 </r>
       <r>   -19.1619     0.0000     2.0000 </r>
       <r>   -19.0807     0.0000     2.0000 </r>
       <r>   -18.9995     0.0000     2.0000 </r>
       <r>   -18.9184     0.0000     2.0000 </r>
       <r>   -18.8372     0.0000     2.0000 </r>
       <r>   -18.7560     0.0000     2.0000 </r>
       <r>   -18.6748     0.0000     2.0000 </r>
       <r>   -18.5936     0.0000     2.0000 </r>
       <r>   -18.5124     0.0000     2.0000 </r>
       <r>   -18.4312     0.0000     2.0000 </r>
       <r>   -18.3500     0.0000     2.0000 </r>
       <r>   -18.2688     0.0000     2.0000 </r>
       <r>   -18.1876     0.0000     2.0000 </r>
       <r>   -18.1064     0.0000     2.0000 </r>
       <r>   -18.0252     0.0000     2.0000 </r>
       <r>   -17.9440     0.0000     2.0000 </r>
       <r>   -17.8628     0.0000     2.0000 </r>
       <r>   -17.7816     0.0000     2.0000 </r>
       <r>   -17.7004     0.0000     2.0000 </r>
       <r>   -17.6192     0.0000     2.0000 </r>
       <r>   -17.5380     0.0000     2.0000 </r>
       <r>   -17.4568     0.0000     2.0000 </r>
       <r>   -17.3756     0.0000     2.0000 </r>
       <r>   -17.2944     0.0000     2.0000 </r>
       <r>   -17.2132     0.0000     2.0000 </r>
       <r>   -17.1320     0.0000     2.0000 </r>
       <r>   -17.0508     0.0000     2.0000 </r>
       <r>   -16.9696     0.0000     2.0000 </r>
       <r>   -16.8884     0.0000     2.0000 </r>
       <r>   -16.8072     0.0008     2.0001 </r>
       <r>   -16.7260     0.0335     2.0028 </r>
       <r>   -16.6448     0.0419     2.0062 </r>
       <r>   -16.5636    -1.3349     1.8978 </r>
       <r>   -16.4824     8.8385     2.6154 </r>
       <r>   -16.4012    16.9822     3.9944 </r>
       <r>   -16.3200     0.4588     4.0316 </r>
       <r>   -16.2388    -0.4848     3.9922 </r>
       <r>   -16.1576     0.0900     3.9996 </r>
       <r>   -16.0765     0.0055     4.0000 </r>
       <r>   -15.9953     0.0000     4.0000 </r>
       <r>   -15.9141     0.0000     4.0000 </r>
       <r>   -15.8329     0.0000     4.0000 </r>
       <r>   -15.7517     0.0000     4.0000 </r>
       <r>   -15.6705     0.0000     4.0000 </r>
       <r>   -15.5893     0.0000     4.0000 </r>
       <r>   -15.5081     0.0000     4.0000 </r>
       <r>   -15.4269     0.0000     4.0000 </r>
       <r>   -15.3457     0.0000     4.0000 </r>
       <r>   -15.2645     0.0000     4.0000 </r>
       <r>   -15.1833     0.0000     4.0000 </r>
       <r>   -15.1021     0.0000     4.0000 </r>
       <r>   -15.0209     0.0000     4.0000 </r>
       <r>   -14.9397     0.0000     4.0000 </r>
       <r>   -14.8585     0.0000     4.0000 </r>
       <r>   -14.7773     0.0000     4.0000 </r>
       <r>   -14.6961     0.0000     4.0000 </r>
       <r>   -14.6149     0.0000     4.0000 </r>
       <r>   -14.5337     0.0000     4.0000 </r>
       <r>   -14.4525     0.0000     4.0000 </r>
       <r>   -14.3713     0.0000     4.0000 </r>
       <r>   -14.2901     0.0000     4.0000 </r>
       <r>   -14.2089     0.0000     4.0000 </r>
       <r>   -14.1277     0.0000     4.0000 </r>
       <r>   -14.0465     0.0000     4.0000 </r>
       <r>   -13.9653     0.0000     4.0000 </r>
       <r>   -13.8841     0.0000     4.0000 </r>
       <r>   -13.8029     0.0000     4.0000 </r>
       <r>   -13.7217     0.0000     4.0000 </r>
       <r>   -13.6405     0.0000     4.0000 </r>
       <r>   -13.5593     0.0000     4.0000 </r>
       <r>   -13.4781     0.0000     4.0000 </r>
       <r>   -13.3969     0.0000     4.0000 </r>
       <r>   -13.3157     0.0000     4.0000 </r>
       <r>   -13.2346     0.0000     4.0000 </r>
       <r>   -13.1534     0.0000     4.0000 </r>
       <r>   -13.0722     0.0000     4.0000 </r>
       <r>   -12.9910     0.0000     4.0000 </r>
       <r>   -12.9098     0.0000     4.0000 </r>
       <r>   -12.8286     0.0000     4.0000 </r>
       <r>   -12.7474     0.0000     4.0000 </r>
       <r>   -12.6662     0.0000     4.0000 </r>
       <r>   -12.5850     0.0000     4.0000 </r>
       <r>   -12.5038     0.0000     4.0000 </r>
       <r>   -12.4226     0.0000     4.0000 </r>
       <r>   -12.3414     0.0000     4.0000 </r>
       <r>   -12.2602     0.0000     4.0000 </r>
       <r>   -12.1790     0.0000     4.0000 </r>
       <r>   -12.0978     0.0000     4.0000 </r>
       <r>   -12.0166     0.0000     4.0000 </r>
       <r>   -11.9354     0.0000     4.0000 </r>
       <r>   -11.8542     0.0000     4.0000 </r>
       <r>   -11.7730     0.0000     4.0000 </r>
       <r>   -11.6918     0.0000     4.0000 </r>
       <r>   -11.6106     0.0000     4.0000 </r>
       <r>   -11.5294     0.0000     4.0000 </r>
       <r>   -11.4482     0.0000     4.0000 </r>
       <r>   -11.3670     0.0000     4.0000 </r>
       <r>   -11.2858     0.0000     4.0000 </r>
       <r>   -11.2046     0.0000     4.0000 </r>
       <r>   -11.1234     0.0000     4.0000 </r>
       <r>   -11.0422     0.0001     4.0000 </r>
       <r>   -10.9610     0.0140     4.0012 </r>
       <r>   -10.8798     0.1852     4.0162 </r>
       <r>   -10.7986    -1.1509     3.9227 </r>
       <r>   -10.7174     2.1193     4.0948 </r>
       <r>   -10.6362    34.3142     6.8810 </r>
       <r>   -10.5550    16.1235     8.1902 </r>
       <r>   -10.4738    -2.4962     7.9875 </r>
       <r>   -10.3927     0.0947     7.9952 </r>
       <r>   -10.3115     0.1465     8.0071 </r>
       <r>   -10.2303    -0.4079     7.9740 </r>
       <r>   -10.1491     0.0906     7.9814 </r>
       <r>   -10.0679    16.4271     9.3152 </r>
       <r>    -9.9867     9.7053    10.1032 </r>
       <r>    -9.9055    -1.3281     9.9954 </r>
       <r>    -9.8243     0.0181     9.9969 </r>
       <r>    -9.7431     0.0377     9.9999 </r>
       <r>    -9.6619     0.0009    10.0000 </r>
       <r>    -9.5807     0.0000    10.0000 </r>
       <r>    -9.4995     0.0000    10.0000 </r>
       <r>    -9.4183     0.0000    10.0000 </r>
       <r>    -9.3371     0.0000    10.0000 </r>
       <r>    -9.2559     0.0000    10.0000 </r>
       <r>    -9.1747     0.0000    10.0000 </r>
       <r>    -9.0935     0.0000    10.0000 </r>
       <r>    -9.0123     0.0000    10.0000 </r>
       <r>    -8.9311     0.0000    10.0000 </r>
       <r>    -8.8499     0.0000    10.0000 </r>
       <r>    -8.7687     0.0000    10.0000 </r>
       <r>    -8.6875     0.0000    10.0000 </r>
       <r>    -8.6063     0.0000    10.0000 </r>
       <r>    -8.5251     0.0000    10.0000 </r>
       <r>    -8.4439     0.0000    10.0000 </r>
       <r>    -8.3627     0.0000    10.0000 </r>
       <r>    -8.2815     0.0000    10.0000 </r>
       <r>    -8.2003     0.0000    10.0000 </r>
       <r>    -8.1191     0.0000    10.0000 </r>
       <r>    -8.0379     0.0000    10.0000 </r>
       <r>    -7.9567     0.0000    10.0000 </r>
       <r>    -7.8755     0.0000    10.0000 </r>
       <r>    -7.7943     0.0000    10.0000 </r>
       <r>    -7.7131     0.0000    10.0000 </r>
       <r>    -7.6319     0.0000    10.0000 </r>
       <r>    -7.5508     0.0000    10.0000 </r>
       <r>    -7.4696     0.0000    10.0000 </r>
       <r>    -7.3884     0.0000    10.0000 </r>
       <r>    -7.3072     0.0000    10.0000 </r>
       <r>    -7.2260     0.0000    10.0000 </r>
       <r>    -7.1448     0.0010    10.0001 </r>
       <r>    -7.0636     0.0407    10.0034 </r>
       <r>    -6.9824     0.0627    10.0085 </r>
       <r>    -6.9012    -1.4075     9.8942 </r>
       <r>    -6.8200     8.8250    10.6108 </r>
       <r>    -6.7388    28.5915    12.9323 </r>
       <r>    -6.6576    14.3384    14.0965 </r>
       <r>    -6.5764    -1.1357    14.0043 </r>
       <r>    -6.4952    -0.1269    13.9940 </r>
       <r>    -6.4140     0.0710    13.9998 </r>
       <r>    -6.3328     0.0027    14.0000 </r>
       <r>    -6.2516     0.0000    14.0000 </r>
       <r>    -6.1704     0.0000    14.0000 </r>
       <r>    -6.0892     0.0000    14.0000 </r>
       <r>    -6.0080     0.0000    14.0000 </r>
       <r>    -5.9268     0.0000    14.0000 </r>
       <r>    -5.8456     0.0000    14.0000 </r>
       <r>    -5.7644     0.0000    14.0000 </r>
       <r>    -5.6832     0.0000    14.0000 </r>
       <r>    -5.6020     0.0000    14.0000 </r>
       <r>    -5.5208     0.0000    14.0000 </r>
       <r>    -5.4396     0.0000    14.0000 </r>
       <r>    -5.3584     0.0000    14.0000 </r>
       <r>    -5.2772     0.0000    14.0000 </r>
       <r>    -5.1960     0.0000    14.0000 </r>
       <r>    -5.1148     0.0000    14.0000 </r>
       <r>    -5.0336     0.0000    14.0000 </r>
       <r>    -4.9524     0.0000    14.0000 </r>
       <r>    -4.8712     0.0000    14.0000 </r>
       <r>    -4.7900     0.0000    14.0000 </r>
       <r>    -4.7089     0.0000    14.0000 </r>
       <r>    -4.6277     0.0000    14.0000 </r>
       <r>    -4.5465     0.0000    14.0000 </r>
       <r>    -4.4653     0.0000    14.0000 </r>
       <r>    -4.3841     0.0000    14.0000 </r>
       <r>    -4.3029     0.0000    14.0000 </r>
       <r>    -4.2217     0.0000    14.0000 </r>
       <r>    -4.1405     0.0000    14.0000 </r>
       <r>    -4.0593     0.0000    14.0000 </r>
       <r>    -3.9781     0.0000    14.0000 </r>
       <r>    -3.8969     0.0000    14.0000 </r>
       <r>    -3.8157     0.0000    14.0000 </r>
       <r>    -3.7345     0.0000    14.0000 </r>
       <r>    -3.6533     0.0000    14.0000 </r>
       <r>    -3.5721     0.0000    14.0000 </r>
       <r>    -3.4909     0.0000    14.0000 </r>
       <r>    -3.4097     0.0000    14.0000 </r>
       <r>    -3.3285     0.0000    14.0000 </r>
       <r>    -3.2473     0.0000    14.0000 </r>
       <r>    -3.1661     0.0000    14.0000 </r>
       <r>    -3.0849     0.0000    14.0000 </r>
       <r>    -3.0037     0.0000    14.0000 </r>
       <r>    -2.9225     0.0000    14.0000 </r>
       <r>    -2.8413     0.0000    14.0000 </r>
       <r>    -2.7601     0.0000    14.0000 </r>
       <r>    -2.6789     0.0000    14.0000 </r>
       <r>    -2.5977     0.0000    14.0000 </r>
       <r>    -2.5165     0.0000    14.0000 </r>
       <r>    -2.4353     0.0000    14.0000 </r>
       <r>    -2.3541     0.0000    14.0000 </r>
       <r>    -2.2729     0.0000    14.0000 </r>
       <r>    -2.1917     0.0000    14.0000 </r>
       <r>    -2.1105     0.0000    14.0000 </r>
       <r>    -2.0293     0.0000    14.0000 </r>
       <r>    -1.9481     0.0000    14.0000 </r>
       <r>    -1.8670     0.0000    14.0000 </r>
       <r>    -1.7858     0.0000    14.0000 </r>
       <r>    -1.7046     0.0000    14.0000 </r>
       <r>    -1.6234     0.0000    14.0000 </r>
       <r>    -1.5422     0.0000    14.0000 </r>
       <r>    -1.4610     0.0000    14.0000 </r>
       <r>    -1.3798     0.0000    14.0000 </r>
       <r>    -1.2986     0.0000    14.0000 </r>
       <r>    -1.2174     0.0000    14.0000 </r>
       <r>    -1.1362     0.0000    14.0000 </r>
       <r>    -1.0550     0.0000    14.0000 </r>
       <r>    -0.9738     0.0000    14.0000 </r>
       <r>    -0.8926     0.0009    14.0001 </r>
       <r>    -0.8114     0.0381    14.0032 </r>
       <r>    -0.7302     0.0158    14.0045 </r>
       <r>    -0.6490    -1.3264    13.8968 </r>
       <r>    -0.5678     9.7796    14.6908 </r>
       <r>    -0.4866    16.3771    16.0206 </r>
       <r>    -0.4054     0.0884    16.0278 </r>
       <r>    -0.3242    -0.3301    16.0010 </r>
       <r>    -0.2430    -1.2141    15.9024 </r>
       <r>    -0.1618     7.3703    16.5008 </r>
       <r>    -0.0806    17.7714    17.9438 </r>
       <r>     0.0006     1.2106    18.0421 </r>
       <r>     0.0818    -0.6245    17.9914 </r>
       <r>     0.1630     0.0984    17.9994 </r>
       <r>     0.2442     0.0073    18.0000 </r>
       <r>     0.3254     0.0001    18.0000 </r>
       <r>     0.4066     0.0000    18.0000 </r>
       <r>     0.4878     0.0000    18.0000 </r>
       <r>     0.5690     0.0001    18.0000 </r>
       <r>     0.6502     0.0119    18.0010 </r>
       <r>     0.7314     0.1898    18.0164 </r>
       <r>     0.8126    -0.8328    17.9488 </r>
       <r>     0.8938    -0.1682    17.9351 </r>
       <r>     0.9749    38.4097    21.0539 </r>
       <r>     1.0561    37.2507    24.0785 </r>
       <r>     1.1373    -0.3992    24.0461 </r>
       <r>     1.2185    -0.7609    23.9843 </r>
       <r>     1.2997     0.1817    23.9991 </r>
       <r>     1.3809     0.0113    24.0000 </r>
       <r>     1.4621     0.0001    24.0000 </r>
       <r>     1.5433     0.0000    24.0000 </r>
       <r>     1.6245     0.0000    24.0000 </r>
       <r>     1.7057     0.0000    24.0000 </r>
       <r>     1.7869     0.0000    24.0000 </r>
       <r>     1.8681     0.0000    24.0000 </r>
       <r>     1.9493     0.0000    24.0000 </r>
       <r>     2.0305     0.0000    24.0000 </r>
       <r>     2.1117     0.0000    24.0000 </r>
      </set>
     </set>
    </array>
   </total>
   <partial>
    <array>
     <dimension dim="1">gridpoints</dimension>
     <dimension dim="2">spin</dimension>
     <dimension dim="3">ion</dimension>
     <field>energy</field>
     <field>  s</field>
     <field> py</field>
     <field> pz</field>
     <field> px</field>
     <field>dxy</field>
     <field>dyz</field>
     <field>dz2</field>
     <field>dxz</field>
     <field>dx2</field>
     <set>
      <set comment="ion 1">
       <set comment="spin 1">
        <r>   -22.2474     0.0000     0.0000     0.0000     0.0000     0.0000     0.0000     0.0000     0.0000     0.0000 </r>
        <r>   -22.1662     0.0000     0.0000     0.0000     0.0000     0.0000     0.0000     0.0000     0.0000     0.0000 </r>
        <r>   -22.0850     0.0000     0.0000     0.0000     0.0000     0.0000     0.0000     0.0000     0.0000     0.0000 </r>
        <r>   -22.0038     0.0000     0.0000     0.0000     0.0000     0.0000     0.0000     0.0000     0.0000     0.0000 </r>
        <r>   -21.9226     0.0000     0.0000     0.0000     0.0000     0.0000     0.0000     0.0000     0.0000     0.0000 </r>
        <r>   -21.8414     0.0000     0.0000     0.0000     0.0000     0.0000     0.0000     0.0000     0.0000     0.0000 </r>
        <r>   -21.7603     0.0000     0.0000     0.0000     0.0000     0.0000     0.0000     0.0000     0.0000     0.0000 </r>
        <r>   -21.6791     0.0000     0.0000     0.0000     0.0000     0.0000     0.0000     0.0000     0.0000     0.0000 </r>
        <r>   -21.5979     0.0000     0.0000     0.0000     0.0000     0.0000     0.0000     0.0000     0.0000     0.0000 </r>
        <r>   -21.5167     0.0000     0.0000     0.0000     0.0000     0.0000     0.0000     0.0000     0.0000     0.0000 </r>
        <r>   -21.4355     0.0012     0.0000     0.0000     0.0001     0.0000     0.0000     0.0000     0.0000     0.0000 </r>
        <r>   -21.3543     0.0133     0.0000     0.0000     0.0016     0.0000     0.0000     0.0000     0.0000     0.0000 </r>
        <r>   -21.2731    -0.0951    -0.0000    -0.0000    -0.0112     0.0000     0.0000     0.0000     0.0000     0.0000 </r>
        <r>   -21.1919     0.2451     0.0000     0.0000     0.0288     0.0000     0.0000     0.0000     0.0000     0.0000 </r>
        <r>   -21.1107     2.3385     0.0000     0.0000     0.2750     0.0000     0.0000     0.0000     0.0000     0.0000 </r>
        <r>   -21.0295     0.8007     0.0000     0.0000     0.0942     0.0000     0.0000     0.0000     0.0000     0.0000 </r>
        <r>   -20.9483    -0.1583    -0.0000    -0.0000    -0.0186     0.0000     0.0000     0.0000     0.0000     0.0000 </r>
        <r>   -20.8671     0.0115     0.0000     0.0000     0.0014     0.0000     0.0000     0.0000     0.0000     0.0000 </r>
        <r>   -20.7859     0.0029     0.0000     0.0000     0.0003     0.0000     0.0000     0.0000     0.0000     0.0000 </r>
        <r>   -20.7047     0.0001     0.0000     0.0000     0.0000     0.0000     0.0000     0.0000     0.0000     0.0000 </r>
        <r>   -20.6235     0.0000     0.0000     0.0000     0.0000     0.0000     0.0000     0.0000     0.0000     0.0000 </r>
        <r>   -20.5423     0.0000     0.0000     0.0000     0.0000     0.0000     0.0000     0.0000     0.0000     0.0000 </r>
        <r>   -20.4611     0.0000     0.0000     0.0000     0.0000     0.0000     0.0000     0.0000     0.0000     0.0000 </r>
        <r>   -20.3799     0.0000     0.0000     0.0000     0.0000     0.0000     0.0000     0.0000     0.0000     0.0000 </r>
        <r>   -20.2987     0.0000     0.0000     0.0000     0.0000     0.0000     0.0000     0.0000     0.0000     0.0000 </r>
        <r>   -20.2175     0.0000     0.0000     0.0000     0.0000     0.0000     0.0000     0.0000     0.0000     0.0000 </r>
        <r>   -20.1363     0.0000     0.0000     0.0000     0.0000     0.0000     0.0000     0.0000     0.0000     0.0000 </r>
        <r>   -20.0551     0.0000     0.0000     0.0000     0.0000     0.0000     0.0000     0.0000     0.0000     0.0000 </r>
        <r>   -19.9739     0.0000     0.0000     0.0000     0.0000     0.0000     0.0000     0.0000     0.0000     0.0000 </r>
        <r>   -19.8927     0.0000     0.0000     0.0000     0.0000     0.0000     0.0000     0.0000     0.0000     0.0000 </r>
        <r>   -19.8115     0.0000     0.0000     0.0000     0.0000     0.0000     0.0000     0.0000     0.0000     0.0000 </r>
        <r>   -19.7303     0.0000     0.0000     0.0000     0.0000     0.0000     0.0000     0.0000     0.0000     0.0000 </r>
        <r>   -19.6491     0.0000     0.0000     0.0000     0.0000     0.0000     0.0000     0.0000     0.0000     0.0000 </r>
        <r>   -19.5679     0.0000     0.0000     0.0000     0.0000     0.0000     0.0000     0.0000     0.0000     0.0000 </r>
        <r>   -19.4867     0.0000     0.0000     0.0000     0.0000     0.0000     0.0000     0.0000     0.0000     0.0000 </r>
        <r>   -19.4055     0.0000     0.0000     0.0000     0.0000     0.0000     0.0000     0.0000     0.0000     0.0000 </r>
        <r>   -19.3243     0.0000     0.0000     0.0000     0.0000     0.0000     0.0000     0.0000     0.0000     0.0000 </r>
        <r>   -19.2431     0.0000     0.0000     0.0000     0.0000     0.0000     0.0000     0.0000     0.0000     0.0000 </r>
        <r>   -19.1619     0.0000     0.0000     0.0000     0.0000     0.0000     0.0000     0.0000     0.0000     0.0000 </r>
        <r>   -19.0807     0.0000     0.0000     0.0000     0.0000     0.0000     0.0000     0.0000     0.0000     0.0000 </r>
        <r>   -18.9995     0.0000     0.0000     0.0000     0.0000     0.0000     0.0000     0.0000     0.0000     0.0000 </r>
        <r>   -18.9184     0.0000     0.0000     0.0000     0.0000     0.0000     0.0000     0.0000     0.0000     0.0000 </r>
        <r>   -18.8372     0.0000     0.0000     0.0000     0.0000     0.0000     0.0000     0.0000     0.0000     0.0000 </r>
        <r>   -18.7560     0.0000     0.0000     0.0000     0.0000     0.0000     0.0000     0.0000     0.0000     0.0000 </r>
        <r>   -18.6748     0.0000     0.0000     0.0000     0.0000     0.0000     0.0000     0.0000     0.0000     0.0000 </r>
        <r>   -18.5936     0.0000     0.0000     0.0000     0.0000     0.0000     0.0000     0.0000     0.0000     0.0000 </r>
        <r>   -18.5124     0.0000     0.0000     0.0000     0.0000     0.0000     0.0000     0.0000     0.0000     0.0000 </r>
        <r>   -18.4312     0.0000     0.0000     0.0000     0.0000     0.0000     0.0000     0.0000     0.0000     0.0000 </r>
        <r>   -18.3500     0.0000     0.0000     0.0000     0.0000     0.0000     0.0000     0.0000     0.0000     0.0000 </r>
        <r>   -18.2688     0.0000     0.0000     0.0000     0.0000     0.0000     0.0000     0.0000     0.0000     0.0000 </r>
        <r>   -18.1876     0.0000     0.0000     0.0000     0.0000     0.0000     0.0000     0.0000     0.0000     0.0000 </r>
        <r>   -18.1064     0.0000     0.0000     0.0000     0.0000     0.0000     0.0000     0.0000     0.0000     0.0000 </r>
        <r>   -18.0252     0.0000     0.0000     0.0000     0.0000     0.0000     0.0000     0.0000     0.0000     0.0000 </r>
        <r>   -17.9440     0.0000     0.0000     0.0000     0.0000     0.0000     0.0000     0.0000     0.0000     0.0000 </r>
        <r>   -17.8628     0.0000     0.0000     0.0000     0.0000     0.0000     0.0000     0.0000     0.0000     0.0000 </r>
        <r>   -17.7816     0.0000     0.0000     0.0000     0.0000     0.0000     0.0000     0.0000     0.0000     0.0000 </r>
        <r>   -17.7004     0.0000     0.0000     0.0000     0.0000     0.0000     0.0000     0.0000     0.0000     0.0000 </r>
        <r>   -17.6192     0.0000     0.0000     0.0000     0.0000     0.0000     0.0000     0.0000     0.0000     0.0000 </r>
        <r>   -17.5380     0.0000     0.0000     0.0000     0.0000     0.0000     0.0000     0.0000     0.0000     0.0000 </r>
        <r>   -17.4568     0.0000     0.0000     0.0000     0.0000     0.0000     0.0000     0.0000     0.0000     0.0000 </r>
        <r>   -17.3756     0.0000     0.0000     0.0000     0.0000     0.0000     0.0000     0.0000     0.0000     0.0000 </r>
        <r>   -17.2944     0.0000     0.0000     0.0000     0.0000     0.0000     0.0000     0.0000     0.0000     0.0000 </r>
        <r>   -17.2132     0.0000     0.0000     0.0000     0.0000     0.0000     0.0000     0.0000     0.0000     0.0000 </r>
        <r>   -17.1320     0.0000     0.0000     0.0000     0.0000     0.0000     0.0000     0.0000     0.0000     0.0000 </r>
        <r>   -17.0508     0.0000     0.0000     0.0000     0.0000     0.0000     0.0000     0.0000     0.0000     0.0000 </r>
        <r>   -16.9696     0.0000     0.0000     0.0000     0.0000     0.0000     0.0000     0.0000     0.0000     0.0000 </r>
        <r>   -16.8884     0.0000     0.0000     0.0000     0.0000     0.0000     0.0000     0.0000     0.0000     0.0000 </r>
        <r>   -16.8072     0.0002     0.0000     0.0000     0.0000     0.0000     0.0000     0.0000     0.0000     0.0000 </r>
        <r>   -16.7260     0.0096     0.0000     0.0000     0.0006     0.0000     0.0000     0.0000     0.0000     0.0000 </r>
        <r>   -16.6448     0.0120     0.0000     0.0000     0.0008     0.0000     0.0000     0.0000     0.0000     0.0000 </r>
        <r>   -16.5636    -0.3809    -0.0000    -0.0000    -0.0258     0.0000     0.0000     0.0000     0.0000     0.0000 </r>
        <r>   -16.4824     2.5216     0.0000     0.0000     0.1709     0.0000     0.0000     0.0000     0.0000     0.0000 </r>
        <r>   -16.4012     4.8452     0.0000     0.0000     0.3284     0.0000     0.0000     0.0000     0.0000     0.0000 </r>
        <r>   -16.3200     0.1309     0.0000     0.0000     0.0089     0.0000     0.0000     0.0000     0.0000     0.0000 </r>
        <r>   -16.2388    -0.1383    -0.0000    -0.0000    -0.0094     0.0000     0.0000     0.0000     0.0000     0.0000 </r>
        <r>   -16.1576     0.0257     0.0000     0.0000     0.0017     0.0000     0.0000     0.0000     0.0000     0.0000 </r>
        <r>   -16.0765     0.0016     0.0000     0.0000     0.0001     0.0000     0.0000     0.0000     0.0000     0.0000 </r>
        <r>   -15.9953     0.0000     0.0000     0.0000     0.0000     0.0000     0.0000     0.0000     0.0000     0.0000 </r>
        <r>   -15.9141     0.0000     0.0000     0.0000     0.0000     0.0000     0.0000     0.0000     0.0000     0.0000 </r>
        <r>   -15.8329     0.0000     0.0000     0.0000     0.0000     0.0000     0.0000     0.0000     0.0000     0.0000 </r>
        <r>   -15.7517     0.0000     0.0000     0.0000     0.0000     0.0000     0.0000     0.0000     0.0000     0.0000 </r>
        <r>   -15.6705     0.0000     0.0000     0.0000     0.0000     0.0000     0.0000     0.0000     0.0000     0.0000 </r>
        <r>   -15.5893     0.0000     0.0000     0.0000     0.0000     0.0000     0.0000     0.0000     0.0000     0.0000 </r>
        <r>   -15.5081     0.0000     0.0000     0.0000     0.0000     0.0000     0.0000     0.0000     0.0000     0.0000 </r>
        <r>   -15.4269     0.0000     0.0000     0.0000     0.0000     0.0000     0.0000     0.0000     0.0000     0.0000 </r>
        <r>   -15.3457     0.0000     0.0000     0.0000     0.0000     0.0000     0.0000     0.0000     0.0000     0.0000 </r>
        <r>   -15.2645     0.0000     0.0000     0.0000     0.0000     0.0000     0.0000     0.0000     0.0000     0.0000 </r>
        <r>   -15.1833     0.0000     0.0000     0.0000     0.0000     0.0000     0.0000     0.0000     0.0000     0.0000 </r>
        <r>   -15.1021     0.0000     0.0000     0.0000     0.0000     0.0000     0.0000     0.0000     0.0000     0.0000 </r>
        <r>   -15.0209     0.0000     0.0000     0.0000     0.0000     0.0000     0.0000     0.0000     0.0000     0.0000 </r>
        <r>   -14.9397     0.0000     0.0000     0.0000     0.0000     0.0000     0.0000     0.0000     0.0000     0.0000 </r>
        <r>   -14.8585     0.0000     0.0000     0.0000     0.0000     0.0000     0.0000     0.0000     0.0000     0.0000 </r>
        <r>   -14.7773     0.0000     0.0000     0.0000     0.0000     0.0000     0.0000     0.0000     0.0000     0.0000 </r>
        <r>   -14.6961     0.0000     0.0000     0.0000     0.0000     0.0000     0.0000     0.0000     0.0000     0.0000 </r>
        <r>   -14.6149     0.0000     0.0000     0.0000     0.0000     0.0000     0.0000     0.0000     0.0000     0.0000 </r>
        <r>   -14.5337     0.0000     0.0000     0.0000     0.0000     0.0000     0.0000     0.0000     0.0000     0.0000 </r>
        <r>   -14.4525     0.0000     0.0000     0.0000     0.0000     0.0000     0.0000     0.0000     0.0000     0.0000 </r>
        <r>   -14.3713     0.0000     0.0000     0.0000     0.0000     0.0000     0.0000     0.0000     0.0000     0.0000 </r>
        <r>   -14.2901     0.0000     0.0000     0.0000     0.0000     0.0000     0.0000     0.0000     0.0000     0.0000 </r>
        <r>   -14.2089     0.0000     0.0000     0.0000     0.0000     0.0000     0.0000     0.0000     0.0000     0.0000 </r>
        <r>   -14.1277     0.0000     0.0000     0.0000     0.0000     0.0000     0.0000     0.0000     0.0000     0.0000 </r>
        <r>   -14.0465     0.0000     0.0000     0.0000     0.0000     0.0000     0.0000     0.0000     0.0000     0.0000 </r>
        <r>   -13.9653     0.0000     0.0000     0.0000     0.0000     0.0000     0.0000     0.0000     0.0000     0.0000 </r>
        <r>   -13.8841     0.0000     0.0000     0.0000     0.0000     0.0000     0.0000     0.0000     0.0000     0.0000 </r>
        <r>   -13.8029     0.0000     0.0000     0.0000     0.0000     0.0000     0.0000     0.0000     0.0000     0.0000 </r>
        <r>   -13.7217     0.0000     0.0000     0.0000     0.0000     0.0000     0.0000     0.0000     0.0000     0.0000 </r>
        <r>   -13.6405     0.0000     0.0000     0.0000     0.0000     0.0000     0.0000     0.0000     0.0000     0.0000 </r>
        <r>   -13.5593     0.0000     0.0000     0.0000     0.0000     0.0000     0.0000     0.0000     0.0000     0.0000 </r>
        <r>   -13.4781     0.0000     0.0000     0.0000     0.0000     0.0000     0.0000     0.0000     0.0000     0.0000 </r>
        <r>   -13.3969     0.0000     0.0000     0.0000     0.0000     0.0000     0.0000     0.0000     0.0000     0.0000 </r>
        <r>   -13.3157     0.0000     0.0000     0.0000     0.0000     0.0000     0.0000     0.0000     0.0000     0.0000 </r>
        <r>   -13.2346     0.0000     0.0000     0.0000     0.0000     0.0000     0.0000     0.0000     0.0000     0.0000 </r>
        <r>   -13.1534     0.0000     0.0000     0.0000     0.0000     0.0000     0.0000     0.0000     0.0000     0.0000 </r>
        <r>   -13.0722     0.0000     0.0000     0.0000     0.0000     0.0000     0.0000     0.0000     0.0000     0.0000 </r>
        <r>   -12.9910     0.0000     0.0000     0.0000     0.0000     0.0000     0.0000     0.0000     0.0000     0.0000 </r>
        <r>   -12.9098     0.0000     0.0000     0.0000     0.0000     0.0000     0.0000     0.0000     0.0000     0.0000 </r>
        <r>   -12.8286     0.0000     0.0000     0.0000     0.0000     0.0000     0.0000     0.0000     0.0000     0.0000 </r>
        <r>   -12.7474     0.0000     0.0000     0.0000     0.0000     0.0000     0.0000     0.0000     0.0000     0.0000 </r>
        <r>   -12.6662     0.0000     0.0000     0.0000     0.0000     0.0000     0.0000     0.0000     0.0000     0.0000 </r>
        <r>   -12.5850     0.0000     0.0000     0.0000     0.0000     0.0000     0.0000     0.0000     0.0000     0.0000 </r>
        <r>   -12.5038     0.0000     0.0000     0.0000     0.0000     0.0000     0.0000     0.0000     0.0000     0.0000 </r>
        <r>   -12.4226     0.0000     0.0000     0.0000     0.0000     0.0000     0.0000     0.0000     0.0000     0.0000 </r>
        <r>   -12.3414     0.0000     0.0000     0.0000     0.0000     0.0000     0.0000     0.0000     0.0000     0.0000 </r>
        <r>   -12.2602     0.0000     0.0000     0.0000     0.0000     0.0000     0.0000     0.0000     0.0000     0.0000 </r>
        <r>   -12.1790     0.0000     0.0000     0.0000     0.0000     0.0000     0.0000     0.0000     0.0000     0.0000 </r>
        <r>   -12.0978     0.0000     0.0000     0.0000     0.0000     0.0000     0.0000     0.0000     0.0000     0.0000 </r>
        <r>   -12.0166     0.0000     0.0000     0.0000     0.0000     0.0000     0.0000     0.0000     0.0000     0.0000 </r>
        <r>   -11.9354     0.0000     0.0000     0.0000     0.0000     0.0000     0.0000     0.0000     0.0000     0.0000 </r>
        <r>   -11.8542     0.0000     0.0000     0.0000     0.0000     0.0000     0.0000     0.0000     0.0000     0.0000 </r>
        <r>   -11.7730     0.0000     0.0000     0.0000     0.0000     0.0000     0.0000     0.0000     0.0000     0.0000 </r>
        <r>   -11.6918     0.0000     0.0000     0.0000     0.0000     0.0000     0.0000     0.0000     0.0000     0.0000 </r>
        <r>   -11.6106     0.0000     0.0000     0.0000     0.0000     0.0000     0.0000     0.0000     0.0000     0.0000 </r>
        <r>   -11.5294     0.0000     0.0000     0.0000     0.0000     0.0000     0.0000     0.0000     0.0000     0.0000 </r>
        <r>   -11.4482     0.0000     0.0000     0.0000     0.0000     0.0000     0.0000     0.0000     0.0000     0.0000 </r>
        <r>   -11.3670     0.0000     0.0000     0.0000     0.0000     0.0000     0.0000     0.0000     0.0000     0.0000 </r>
        <r>   -11.2858     0.0000     0.0000     0.0000     0.0000     0.0000     0.0000     0.0000     0.0000     0.0000 </r>
        <r>   -11.2046     0.0000     0.0000     0.0000     0.0000     0.0000     0.0000     0.0000     0.0000     0.0000 </r>
        <r>   -11.1234     0.0000     0.0000     0.0000     0.0000     0.0000     0.0000     0.0000     0.0000     0.0000 </r>
        <r>   -11.0422     0.0000     0.0000     0.0000     0.0000     0.0000     0.0000     0.0000     0.0000     0.0000 </r>
        <r>   -10.9610     0.0000     0.0021     0.0019     0.0000     0.0000     0.0000     0.0000     0.0000     0.0000 </r>
        <r>   -10.8798     0.0000     0.0269     0.0261     0.0000     0.0000     0.0000     0.0000     0.0000     0.0000 </r>
        <r>   -10.7986    -0.0000    -0.1713    -0.1575    -0.0000     0.0000     0.0000     0.0000     0.0000     0.0000 </r>
        <r>   -10.7174     0.0000     0.3388     0.2630     0.0000     0.0000     0.0000     0.0000     0.0000     0.0000 </r>
        <r>   -10.6362     0.0000     4.9469     4.8714     0.0000     0.0000     0.0000     0.0000     0.0000     0.0000 </r>
        <r>   -10.5550     0.0000     2.2340     2.3791     0.0000     0.0000     0.0000     0.0000     0.0000     0.0000 </r>
        <r>   -10.4738    -0.0000    -0.3559    -0.3593     0.0000     0.0000     0.0000     0.0000     0.0000     0.0000 </r>
        <r>   -10.3927     0.0000     0.0145     0.0114     0.0009     0.0000     0.0000     0.0000     0.0000     0.0000 </r>
        <r>   -10.3115     0.0000     0.0086     0.0092     0.0166     0.0000     0.0000     0.0000     0.0000     0.0000 </r>
        <r>   -10.2303    -0.0000     0.0002     0.0002    -0.0803     0.0000     0.0000     0.0000     0.0000     0.0000 </r>
[...]
        <r>    -1.1362     0.0000     0.0000     0.0000     0.0000     0.0000     0.0000     0.0000     0.0000     0.0000 </r>
        <r>    -1.0550     0.0000     0.0000     0.0000     0.0000     0.0000     0.0000     0.0000     0.0000     0.0000 </r>
        <r>    -0.9738     0.0000     0.0000     0.0000     0.0000     0.0000     0.0000     0.0000     0.0000     0.0000 </r>
        <r>    -0.8926     0.0000     0.0000     0.0000     0.0000     0.0000     0.0000     0.0000     0.0000     0.0000 </r>
        <r>    -0.8114     0.0000     0.0001     0.0000     0.0000     0.0000     0.0000     0.0000     0.0000     0.0000 </r>
        <r>    -0.7302     0.0000     0.0000     0.0000     0.0000     0.0000     0.0000     0.0000     0.0000     0.0000 </r>
        <r>    -0.6490    -0.0003    -0.0030    -0.0000    -0.0013     0.0000     0.0000     0.0000     0.0000     0.0000 </r>
        <r>    -0.5678     0.0019     0.0219     0.0001     0.0095     0.0000     0.0000     0.0000     0.0000     0.0000 </r>
        <r>    -0.4866     0.0032     0.0367     0.0002     0.0159     0.0000     0.0000     0.0000     0.0000     0.0000 </r>
        <r>    -0.4054     0.0000     0.0001     0.0000     0.0001     0.0000     0.0000     0.0000     0.0000     0.0000 </r>
        <r>    -0.3242    -0.0001    -0.0009    -0.0000    -0.0001     0.0000     0.0000     0.0000     0.0000     0.0000 </r>
        <r>    -0.2430    -0.0001     0.0001     0.0000    -0.0043     0.0000     0.0000     0.0000     0.0000     0.0000 </r>
        <r>    -0.1618     0.0006     0.0003     0.0000     0.0247     0.0000     0.0000     0.0000     0.0000     0.0000 </r>
        <r>    -0.0806     0.0014     0.0008     0.0000     0.0595     0.0000     0.0000     0.0000     0.0000     0.0000 </r>
        <r>     0.0006     0.0001     0.0001     0.0000     0.0041     0.0000     0.0000     0.0000     0.0000     0.0000 </r>
        <r>     0.0818    -0.0000    -0.0000    -0.0000    -0.0021     0.0000     0.0000     0.0000     0.0000     0.0000 </r>
        <r>     0.1630     0.0000     0.0000     0.0000     0.0003     0.0000     0.0000     0.0000     0.0000     0.0000 </r>
        <r>     0.2442     0.0000     0.0000     0.0000     0.0000     0.0000     0.0000     0.0000     0.0000     0.0000 </r>
        <r>     0.3254     0.0000     0.0000     0.0000     0.0000     0.0000     0.0000     0.0000     0.0000     0.0000 </r>
        <r>     0.4066     0.0000     0.0000     0.0000     0.0000     0.0000     0.0000     0.0000     0.0000     0.0000 </r>
        <r>     0.4878     0.0000     0.0000     0.0000     0.0000     0.0000     0.0000     0.0000     0.0000     0.0000 </r>
        <r>     0.5690     0.0000     0.0000     0.0000     0.0000     0.0000     0.0000     0.0000     0.0000     0.0000 </r>
        <r>     0.6502     0.0000     0.0000     0.0000     0.0000     0.0000     0.0000     0.0000     0.0000     0.0000 </r>
        <r>     0.7314     0.0001     0.0003     0.0000     0.0001     0.0000     0.0000     0.0000     0.0000     0.0000 </r>
        <r>     0.8126    -0.0001    -0.0019    -0.0000    -0.0007     0.0000     0.0000     0.0000     0.0000     0.0000 </r>
        <r>     0.8938    -0.0010     0.0035    -0.0001     0.0015     0.0000     0.0000     0.0000     0.0000     0.0000 </r>
        <r>     0.9749     0.0121     0.0602     0.0020     0.0178     0.0000     0.0000     0.0000     0.0000     0.0000 </r>
        <r>     1.0561     0.0236     0.0450     0.0019     0.0090     0.0000     0.0000     0.0000     0.0000     0.0000 </r>
        <r>     1.1373     0.0020    -0.0005    -0.0001    -0.0008     0.0000     0.0000     0.0000     0.0000     0.0000 </r>
        <r>     1.2185    -0.0009    -0.0009    -0.0000    -0.0001     0.0000     0.0000     0.0000     0.0000     0.0000 </r>
        <r>     1.2997     0.0001     0.0002     0.0000     0.0000     0.0000     0.0000     0.0000     0.0000     0.0000 </r>
        <r>     1.3809     0.0000     0.0000     0.0000     0.0000     0.0000     0.0000     0.0000     0.0000     0.0000 </r>
        <r>     1.4621     0.0000     0.0000     0.0000     0.0000     0.0000     0.0000     0.0000     0.0000     0.0000 </r>
        <r>     1.5433     0.0000     0.0000     0.0000     0.0000     0.0000     0.0000     0.0000     0.0000     0.0000 </r>
        <r>     1.6245     0.0000     0.0000     0.0000     0.0000     0.0000     0.0000     0.0000     0.0000     0.0000 </r>
        <r>     1.7057     0.0000     0.0000     0.0000     0.0000     0.0000     0.0000     0.0000     0.0000     0.0000 </r>
        <r>     1.7869     0.0000     0.0000     0.0000     0.0000     0.0000     0.0000     0.0000     0.0000     0.0000 </r>
        <r>     1.8681     0.0000     0.0000     0.0000     0.0000     0.0000     0.0000     0.0000     0.0000     0.0000 </r>
        <r>     1.9493     0.0000     0.0000     0.0000     0.0000     0.0000     0.0000     0.0000     0.0000     0.0000 </r>
        <r>     2.0305     0.0000     0.0000     0.0000     0.0000     0.0000     0.0000     0.0000     0.0000     0.0000 </r>
        <r>     2.1117     0.0000     0.0000     0.0000     0.0000     0.0000     0.0000     0.0000     0.0000     0.0000 </r>
       </set>
      </set>
     </set>
    </array>
   </partial>
  </dos>
  <projected>
   <eigenvalues>
    <array>
     <dimension dim="1">band</dimension>
     <dimension dim="2">kpoint</dimension>
     <dimension dim="3">spin</dimension>
     <field>eigene</field>
     <field>occ</field>
     <set>
      <set comment="spin 1">
       <set comment="kpoint 1">
        <r>  -21.1402    1.0000 </r>
        <r>  -16.4638    1.0000 </r>
        <r>  -10.6681    1.0000 </r>
        <r>  -10.6486    1.0000 </r>
        <r>  -10.0830    1.0000 </r>
        <r>   -6.8059    1.0308 </r>
        <r>   -6.7344    0.9692 </r>
        <r>   -0.5529    0.0000 </r>
        <r>   -0.1371    0.0000 </r>
        <r>    0.9437    0.0000 </r>
        <r>    0.9745    0.0000 </r>
        <r>    1.0045    0.0000 </r>
       </set>
      </set>
      <set comment="spin 2">
       <set comment="kpoint 1">
        <r>  -21.1402    1.0000 </r>
        <r>  -16.4638    1.0000 </r>
        <r>  -10.6682    1.0000 </r>
        <r>  -10.6485    1.0000 </r>
        <r>  -10.0830    1.0000 </r>
        <r>   -6.8059    1.0308 </r>
        <r>   -6.7344    0.9692 </r>
        <r>   -0.5529    0.0000 </r>
        <r>   -0.1371    0.0000 </r>
        <r>    0.9454    0.0000 </r>
        <r>    0.9725    0.0000 </r>
        <r>    1.0045    0.0000 </r>
       </set>
      </set>
     </set>
    </array>
   </eigenvalues>
   <array>
    <dimension dim="1">ion</dimension>
    <dimension dim="2">band</dimension>
    <dimension dim="3">kpoint</dimension>
    <dimension dim="4">spin</dimension>
    <field>  s</field>
    <field> py</field>
    <field> pz</field>
    <field> px</field>
    <field>dxy</field>
    <field>dyz</field>
    <field>dz2</field>
    <field>dxz</field>
    <field>dx2</field>
    <set>
     <set comment="spin1">
      <set comment="kpoint 1">
       <set comment="band 1">
        <r>  0.1283  0.0000  0.0000  0.0151  0.0000  0.0000  0.0000  0.0000  0.0000 </r>
        <r>  0.5719  0.0000  0.0000  0.0262  0.0000  0.0000  0.0000  0.0000  0.0000 </r>
        <r>  0.0115  0.0002  0.0008  0.0004  0.0000  0.0000  0.0000  0.0000  0.0000 </r>
        <r>  0.0114  0.0003  0.0007  0.0004  0.0000  0.0000  0.0000  0.0000  0.0000 </r>
        <r>  0.0115  0.0010  0.0000  0.0004  0.0000  0.0000  0.0000  0.0000  0.0000 </r>
       </set>
       <set comment="band 2">
        <r>  0.2853  0.0000  0.0000  0.0193  0.0000  0.0000  0.0000  0.0000  0.0000 </r>
        <r>  0.2035  0.0000  0.0000  0.0262  0.0000  0.0000  0.0000  0.0000  0.0000 </r>
        <r>  0.0666  0.0011  0.0044  0.0003  0.0000  0.0000  0.0000  0.0000  0.0000 </r>
        <r>  0.0663  0.0017  0.0038  0.0003  0.0000  0.0000  0.0000  0.0000  0.0000 </r>
        <r>  0.0665  0.0055  0.0000  0.0003  0.0000  0.0000  0.0000  0.0000  0.0000 </r>
       </set>
       <set comment="band 3">
        <r>  0.0000  0.1582  0.1273  0.0000  0.0000  0.0000  0.0000  0.0000  0.0000 </r>
        <r>  0.0000  0.0424  0.0341  0.0000  0.0000  0.0000  0.0000  0.0000  0.0000 </r>
        <r>  0.1606  0.0002  0.0046  0.0017  0.0000  0.0000  0.0000  0.0000  0.0000 </r>
        <r>  0.0038  0.0019  0.0003  0.0000  0.0000  0.0000  0.0000  0.0000  0.0000 </r>
        <r>  0.1149  0.0034  0.0006  0.0012  0.0000  0.0000  0.0000  0.0000  0.0000 </r>
       </set>
       <set comment="band 4">
        <r>  0.0000  0.1278  0.1588  0.0000  0.0000  0.0000  0.0000  0.0000  0.0000 </r>
        <r>  0.0000  0.0331  0.0412  0.0000  0.0000  0.0000  0.0000  0.0000  0.0000 </r>
        <r>  0.0259  0.0026  0.0000  0.0003  0.0000  0.0000  0.0000  0.0000  0.0000 </r>
        <r>  0.1829  0.0012  0.0040  0.0020  0.0000  0.0000  0.0000  0.0000  0.0000 </r>
        <r>  0.0716  0.0018  0.0015  0.0008  0.0000  0.0000  0.0000  0.0000  0.0000 </r>
       </set>
       <set comment="band 5">
        <r>  0.0000  0.0000  0.0000  0.1961  0.0000  0.0000  0.0000  0.0000  0.0000 </r>
        <r>  0.0231  0.0000  0.0000  0.4262  0.0000  0.0000  0.0000  0.0000  0.0000 </r>
        <r>  0.0175  0.0002  0.0010  0.0008  0.0000  0.0000  0.0000  0.0000  0.0000 </r>
        <r>  0.0180  0.0004  0.0009  0.0008  0.0000  0.0000  0.0000  0.0000  0.0000 </r>
        <r>  0.0177  0.0012  0.0000  0.0008  0.0000  0.0000  0.0000  0.0000  0.0000 </r>
       </set>
       <set comment="band 6">
        <r>  0.0000  0.0191  0.0165  0.0000  0.0000  0.0000  0.0000  0.0000  0.0000 </r>
        <r>  0.0000  0.3046  0.2627  0.0000  0.0000  0.0000  0.0000  0.0000  0.0000 </r>
        <r>  0.0389  0.0000  0.0008  0.0000  0.0000  0.0000  0.0000  0.0000  0.0000 </r>
        <r>  0.0011  0.0003  0.0000  0.0000  0.0000  0.0000  0.0000  0.0000  0.0000 </r>
        <r>  0.0268  0.0006  0.0001  0.0000  0.0000  0.0000  0.0000  0.0000  0.0000 </r>
       </set>
       <set comment="band 7">
        <r>  0.0000  0.0160  0.0185  0.0000  0.0000  0.0000  0.0000  0.0000  0.0000 </r>
        <r>  0.0000  0.2631  0.3051  0.0000  0.0000  0.0000  0.0000  0.0000  0.0000 </r>
        <r>  0.0055  0.0004  0.0000  0.0000  0.0000  0.0000  0.0000  0.0000  0.0000 </r>
        <r>  0.0426  0.0002  0.0007  0.0000  0.0000  0.0000  0.0000  0.0000  0.0000 </r>
        <r>  0.0174  0.0003  0.0002  0.0000  0.0000  0.0000  0.0000  0.0000  0.0000 </r>
       </set>
       <set comment="band 8">
        <r>  0.0547  0.0000  0.0000  0.0062  0.0000  0.0000  0.0000  0.0000  0.0000 </r>
        <r>  0.0005  0.0000  0.0000  0.0388  0.0000  0.0000  0.0000  0.0000  0.0000 </r>
        <r>  0.0002  0.0004  0.0018  0.0010  0.0000  0.0000  0.0000  0.0000  0.0000 </r>
        <r>  0.0002  0.0007  0.0016  0.0010  0.0000  0.0000  0.0000  0.0000  0.0000 </r>
        <r>  0.0002  0.0022  0.0000  0.0010  0.0000  0.0000  0.0000  0.0000  0.0000 </r>
       </set>
       <set comment="band 9">
        <r>  0.0279  0.0000  0.0000  0.1072  0.0000  0.0000  0.0000  0.0000  0.0000 </r>
        <r>  0.0416  0.0000  0.0000  0.0768  0.0000  0.0000  0.0000  0.0000  0.0000 </r>
        <r>  0.0001  0.0000  0.0000  0.0033  0.0000  0.0000  0.0000  0.0000  0.0000 </r>
        <r>  0.0001  0.0000  0.0000  0.0033  0.0000  0.0000  0.0000  0.0000  0.0000 </r>
        <r>  0.0001  0.0000  0.0000  0.0033  0.0000  0.0000  0.0000  0.0000  0.0000 </r>
       </set>
       <set comment="band 10">
        <r>  0.0000  0.0317  0.0023  0.0000  0.0000  0.0000  0.0000  0.0000  0.0000 </r>
        <r>  0.0000  0.0029  0.0002  0.0000  0.0000  0.0000  0.0000  0.0000  0.0000 </r>
        <r>  0.0002  0.0000  0.0018  0.0003  0.0000  0.0000  0.0000  0.0000  0.0000 </r>
        <r>  0.0001  0.0000  0.0008  0.0001  0.0000  0.0000  0.0000  0.0000  0.0000 </r>
        <r>  0.0002  0.0027  0.0000  0.0009  0.0000  0.0000  0.0000  0.0000  0.0000 </r>
       </set>
       <set comment="band 11">
        <r>  0.0000  0.0021  0.0298  0.0000  0.0000  0.0000  0.0000  0.0000  0.0000 </r>
        <r>  0.0000  0.0003  0.0043  0.0000  0.0000  0.0000  0.0000  0.0000  0.0000 </r>
        <r>  0.0000  0.0006  0.0009  0.0006  0.0000  0.0000  0.0000  0.0000  0.0000 </r>
        <r>  0.0001  0.0011  0.0017  0.0007  0.0000  0.0000  0.0000  0.0000  0.0000 </r>
        <r>  0.0000  0.0001  0.0001  0.0000  0.0000  0.0000  0.0000  0.0000  0.0000 </r>
       </set>
       <set comment="band 12">
        <r>  0.0075  0.0002  0.0001  0.0011  0.0000  0.0000  0.0000  0.0000  0.0000 </r>
        <r>  0.0046  0.0000  0.0000  0.0021  0.0000  0.0000  0.0000  0.0000  0.0000 </r>
        <r>  0.0010  0.0003  0.0009  0.0002  0.0000  0.0000  0.0000  0.0000  0.0000 </r>
        <r>  0.0010  0.0003  0.0006  0.0003  0.0000  0.0000  0.0000  0.0000  0.0000 </r>
        <r>  0.0012  0.0015  0.0000  0.0002  0.0000  0.0000  0.0000  0.0000  0.0000 </r>
       </set>
      </set>
     </set>
     <set comment="spin2">
      <set comment="kpoint 1">
       <set comment="band 1">
        <r>  0.1283  0.0000  0.0000  0.0151  0.0000  0.0000  0.0000  0.0000  0.0000 </r>
        <r>  0.5719  0.0000  0.0000  0.0262  0.0000  0.0000  0.0000  0.0000  0.0000 </r>
        <r>  0.0114  0.0002  0.0008  0.0004  0.0000  0.0000  0.0000  0.0000  0.0000 </r>
        <r>  0.0115  0.0003  0.0007  0.0004  0.0000  0.0000  0.0000  0.0000  0.0000 </r>
        <r>  0.0115  0.0010  0.0000  0.0004  0.0000  0.0000  0.0000  0.0000  0.0000 </r>
       </set>
       <set comment="band 2">
        <r>  0.2853  0.0000  0.0000  0.0193  0.0000  0.0000  0.0000  0.0000  0.0000 </r>
        <r>  0.2035  0.0000  0.0000  0.0262  0.0000  0.0000  0.0000  0.0000  0.0000 </r>
        <r>  0.0663  0.0011  0.0044  0.0003  0.0000  0.0000  0.0000  0.0000  0.0000 </r>
        <r>  0.0666  0.0017  0.0038  0.0003  0.0000  0.0000  0.0000  0.0000  0.0000 </r>
        <r>  0.0664  0.0054  0.0000  0.0003  0.0000  0.0000  0.0000  0.0000  0.0000 </r>
       </set>
       <set comment="band 3">
        <r>  0.0000  0.1376  0.1479  0.0000  0.0000  0.0000  0.0000  0.0000  0.0000 </r>
        <r>  0.0000  0.0368  0.0397  0.0000  0.0000  0.0000  0.0000  0.0000  0.0000 </r>
        <r>  0.0212  0.0025  0.0000  0.0002  0.0000  0.0000  0.0000  0.0000  0.0000 </r>
        <r>  0.1805  0.0011  0.0040  0.0019  0.0000  0.0000  0.0000  0.0000  0.0000 </r>
        <r>  0.0775  0.0020  0.0015  0.0008  0.0000  0.0000  0.0000  0.0000  0.0000 </r>
       </set>
       <set comment="band 4">
        <r>  0.0000  0.1485  0.1380  0.0000  0.0000  0.0000  0.0000  0.0000  0.0000 </r>
        <r>  0.0000  0.0385  0.0358  0.0000  0.0000  0.0000  0.0000  0.0000  0.0000 </r>
        <r>  0.1655  0.0003  0.0046  0.0018  0.0000  0.0000  0.0000  0.0000  0.0000 </r>
        <r>  0.0059  0.0020  0.0002  0.0001  0.0000  0.0000  0.0000  0.0000  0.0000 </r>
        <r>  0.1090  0.0032  0.0007  0.0012  0.0000  0.0000  0.0000  0.0000  0.0000 </r>
       </set>
       <set comment="band 5">
        <r>  0.0000  0.0000  0.0000  0.1961  0.0000  0.0000  0.0000  0.0000  0.0000 </r>
        <r>  0.0231  0.0000  0.0000  0.4262  0.0000  0.0000  0.0000  0.0000  0.0000 </r>
        <r>  0.0180  0.0002  0.0010  0.0008  0.0000  0.0000  0.0000  0.0000  0.0000 </r>
        <r>  0.0174  0.0004  0.0008  0.0008  0.0000  0.0000  0.0000  0.0000  0.0000 </r>
        <r>  0.0179  0.0012  0.0000  0.0008  0.0000  0.0000  0.0000  0.0000  0.0000 </r>
       </set>
       <set comment="band 6">
        <r>  0.0000  0.0165  0.0191  0.0000  0.0000  0.0000  0.0000  0.0000  0.0000 </r>
        <r>  0.0000  0.2636  0.3037  0.0000  0.0000  0.0000  0.0000  0.0000  0.0000 </r>
        <r>  0.0056  0.0004  0.0000  0.0000  0.0000  0.0000  0.0000  0.0000  0.0000 </r>
        <r>  0.0434  0.0002  0.0007  0.0000  0.0000  0.0000  0.0000  0.0000  0.0000 </r>
        <r>  0.0178  0.0003  0.0002  0.0000  0.0000  0.0000  0.0000  0.0000  0.0000 </r>
       </set>
       <set comment="band 7">
        <r>  0.0000  0.0185  0.0160  0.0000  0.0000  0.0000  0.0000  0.0000  0.0000 </r>
        <r>  0.0000  0.3041  0.2640  0.0000  0.0000  0.0000  0.0000  0.0000  0.0000 </r>
        <r>  0.0382  0.0000  0.0008  0.0000  0.0000  0.0000  0.0000  0.0000  0.0000 </r>
        <r>  0.0011  0.0003  0.0000  0.0000  0.0000  0.0000  0.0000  0.0000  0.0000 </r>
        <r>  0.0262  0.0006  0.0001  0.0000  0.0000  0.0000  0.0000  0.0000  0.0000 </r>
       </set>
       <set comment="band 8">
        <r>  0.0547  0.0000  0.0000  0.0062  0.0000  0.0000  0.0000  0.0000  0.0000 </r>
        <r>  0.0005  0.0000  0.0000  0.0388  0.0000  0.0000  0.0000  0.0000  0.0000 </r>
        <r>  0.0002  0.0004  0.0018  0.0010  0.0000  0.0000  0.0000  0.0000  0.0000 </r>
        <r>  0.0002  0.0007  0.0016  0.0010  0.0000  0.0000  0.0000  0.0000  0.0000 </r>
        <r>  0.0002  0.0022  0.0000  0.0010  0.0000  0.0000  0.0000  0.0000  0.0000 </r>
       </set>
       <set comment="band 9">
        <r>  0.0279  0.0000  0.0000  0.1072  0.0000  0.0000  0.0000  0.0000  0.0000 </r>
        <r>  0.0416  0.0000  0.0000  0.0768  0.0000  0.0000  0.0000  0.0000  0.0000 </r>
        <r>  0.0001  0.0000  0.0000  0.0033  0.0000  0.0000  0.0000  0.0000  0.0000 </r>
        <r>  0.0001  0.0000  0.0000  0.0033  0.0000  0.0000  0.0000  0.0000  0.0000 </r>
        <r>  0.0001  0.0000  0.0000  0.0033  0.0000  0.0000  0.0000  0.0000  0.0000 </r>
       </set>
       <set comment="band 10">
        <r>  0.0000  0.0334  0.0006  0.0000  0.0000  0.0000  0.0000  0.0000  0.0000 </r>
        <r>  0.0000  0.0031  0.0000  0.0000  0.0000  0.0000  0.0000  0.0000  0.0000 </r>
        <r>  0.0002  0.0000  0.0014  0.0002  0.0000  0.0000  0.0000  0.0000  0.0000 </r>
        <r>  0.0001  0.0000  0.0011  0.0001  0.0000  0.0000  0.0000  0.0000  0.0000 </r>
        <r>  0.0002  0.0028  0.0000  0.0009  0.0000  0.0000  0.0000  0.0000  0.0000 </r>
       </set>
       <set comment="band 11">
        <r>  0.0000  0.0005  0.0316  0.0000  0.0000  0.0000  0.0000  0.0000  0.0000 </r>
        <r>  0.0000  0.0001  0.0045  0.0000  0.0000  0.0000  0.0000  0.0000  0.0000 </r>
        <r>  0.0000  0.0006  0.0012  0.0007  0.0000  0.0000  0.0000  0.0000  0.0000 </r>
        <r>  0.0001  0.0011  0.0014  0.0006  0.0000  0.0000  0.0000  0.0000  0.0000 </r>
        <r>  0.0000  0.0000  0.0001  0.0000  0.0000  0.0000  0.0000  0.0000  0.0000 </r>
       </set>
       <set comment="band 12">
        <r>  0.0075  0.0002  0.0001  0.0011  0.0000  0.0000  0.0000  0.0000  0.0000 </r>
        <r>  0.0046  0.0000  0.0000  0.0021  0.0000  0.0000  0.0000  0.0000  0.0000 </r>
        <r>  0.0010  0.0003  0.0009  0.0002  0.0000  0.0000  0.0000  0.0000  0.0000 </r>
        <r>  0.0010  0.0003  0.0006  0.0003  0.0000  0.0000  0.0000  0.0000  0.0000 </r>
        <r>  0.0012  0.0015  0.0000  0.0002  0.0000  0.0000  0.0000  0.0000  0.0000 </r>
       </set>
      </set>
     </set>
    </set>
   </array>
  </projected>
 </calculation>
 <structure name="finalpos" >
  <crystal>
   <varray name="basis" >
    <v>      10.00000000       0.00000000       0.00000000 </v>
    <v>       0.00000000      10.00000000       0.00000000 </v>
    <v>       0.00000000       0.00000000      10.00000000 </v>
   </varray>
   <i name="volume">   1000.00000000 </i>
   <varray name="rec_basis" >
    <v>       0.10000000       0.00000000       0.00000000 </v>
    <v>       0.00000000       0.10000000       0.00000000 </v>
    <v>       0.00000000       0.00000000       0.10000000 </v>
   </varray>
  </crystal>
  <varray name="positions" >
   <v>       0.42950300       0.47713450       0.49666800 </v>
   <v>       0.60620000       0.47713450       0.49666800 </v>
   <v>       0.39380000       0.43140350       0.58920400 </v>
   <v>       0.39380000       0.41986150       0.41079600 </v>
   <v>       0.39380000       0.58013850       0.49000400 </v>
  </varray>
 </structure>
</modeling>
