unknown system                          
           1
    10.000000    0.000000    0.000000
     0.000000   10.000000    0.000000
     0.000000    0.000000   10.000000
   C    Cl   H 
   1   1   3
Direct configuration=     1
   0.42950300  0.47713450  0.49666800
   0.60620000  0.47713450  0.49666800
   0.39380000  0.43140350  0.58920400
   0.39380000  0.41986150  0.41079600
   0.39380000  0.58013850  0.49000400
